M 0.00000 1 (1151.83, 1388.65, 0.00), (1151.83, 1388.65), 50.00
M 0.00000 2 (595.78, 732.54, 0.00), (595.78, 732.54), 50.00
M 0.00000 3 (1371.02, 1189.22, 0.00), (1371.02, 1189.22), 50.00
M 0.00000 4 (1166.30, 1468.76, 0.00), (1166.30, 1468.76), 50.00
s -t 1.000000000 -Hs 1 -Hd -2 -Ni 1 -Nx 1450.33 -Ny 707.01 -Nz 0.00 -Ne -1.000000 -Nl AGT -Nw --- -Ma 0 -Md 0 -Ms 0 -Mt 0 -Is 1.0 -Id 0.0 -It tcp -Il 40 -If 1 -Ii 0 -Iv 32 -Pn tcp -Ps 0 -Pa 0 -Pf 0 -Po 0 
s -t 1.000000000 -Hs 2 -Hd -2 -Ni 2 -Nx 1292.52 -Ny 350.62 -Nz 0.00 -Ne -1.000000 -Nl AGT -Nw --- -Ma 0 -Md 0 -Ms 0 -Mt 0 -Is 2.0 -Id 0.1 -It tcp -Il 40 -If 1 -Ii 1 -Iv 32 -Pn tcp -Ps 0 -Pa 0 -Pf 0 -Po 0 
s -t 1.000000000 -Hs 3 -Hd -2 -Ni 3 -Nx 824.25 -Ny 637.42 -Nz 0.00 -Ne -1.000000 -Nl AGT -Nw --- -Ma 0 -Md 0 -Ms 0 -Mt 0 -Is 3.0 -Id 0.2 -It tcp -Il 40 -If 1 -Ii 2 -Iv 32 -Pn tcp -Ps 0 -Pa 0 -Pf 0 -Po 0 
s -t 1.000000000 -Hs 4 -Hd -2 -Ni 4 -Nx 100.42 -Ny 234.63 -Nz 0.00 -Ne -1.000000 -Nl AGT -Nw --- -Ma 0 -Md 0 -Ms 0 -Mt 0 -Is 4.0 -Id 0.3 -It tcp -Il 40 -If 1 -Ii 3 -Iv 32 -Pn tcp -Ps 0 -Pa 0 -Pf 0 -Po 0 
M 1.00000 1 (1450.33, 707.01, 0.00), (1450.33, 707.01), 50.00
M 1.00000 2 (1292.52, 350.62, 0.00), (1292.52, 350.62), 50.00
M 1.00000 3 (824.25, 637.42, 0.00), (824.25, 637.42), 50.00
M 1.00000 4 (100.42, 234.63, 0.00), (100.42, 234.63), 50.00
M 2.00000 1 (1404.57, 1169.86, 0.00), (1404.57, 1169.86), 50.00
M 2.00000 2 (1416.90, 1298.82, 0.00), (1416.90, 1298.82), 50.00
M 2.00000 3 (1274.37, 1332.30, 0.00), (1274.37, 1332.30), 50.00
M 2.00000 4 (1389.74, 907.67, 0.00), (1389.74, 907.67), 50.00
M 3.00000 1 (271.57, 1280.12, 0.00), (271.57, 1280.12), 50.00
M 3.00000 2 (549.74, 932.61, 0.00), (549.74, 932.61), 50.00
M 3.00000 3 (885.20, 484.97, 0.00), (885.20, 484.97), 50.00
M 3.00000 4 (1326.74, 964.71, 0.00), (1326.74, 964.71), 50.00
s -t 4.000000000 -Hs 1 -Hd -2 -Ni 1 -Nx 271.57 -Ny 1280.12 -Nz 0.00 -Ne -1.000000 -Nl AGT -Nw --- -Ma 0 -Md 0 -Ms 0 -Mt 0 -Is 1.0 -Id 0.0 -It tcp -Il 40 -If 1 -Ii 4 -Iv 32 -Pn tcp -Ps 0 -Pa 0 -Pf 0 -Po 0 
s -t 4.000000000 -Hs 2 -Hd -2 -Ni 2 -Nx 549.74 -Ny 932.61 -Nz 0.00 -Ne -1.000000 -Nl AGT -Nw --- -Ma 0 -Md 0 -Ms 0 -Mt 0 -Is 2.0 -Id 0.1 -It tcp -Il 40 -If 1 -Ii 5 -Iv 32 -Pn tcp -Ps 0 -Pa 0 -Pf 0 -Po 0 
s -t 4.000000000 -Hs 3 -Hd -2 -Ni 3 -Nx 885.20 -Ny 484.97 -Nz 0.00 -Ne -1.000000 -Nl AGT -Nw --- -Ma 0 -Md 0 -Ms 0 -Mt 0 -Is 3.0 -Id 0.2 -It tcp -Il 40 -If 1 -Ii 6 -Iv 32 -Pn tcp -Ps 0 -Pa 0 -Pf 0 -Po 0 
s -t 4.000000000 -Hs 4 -Hd -2 -Ni 4 -Nx 1326.74 -Ny 964.71 -Nz 0.00 -Ne -1.000000 -Nl AGT -Nw --- -Ma 0 -Md 0 -Ms 0 -Mt 0 -Is 4.0 -Id 0.3 -It tcp -Il 40 -If 1 -Ii 7 -Iv 32 -Pn tcp -Ps 0 -Pa 0 -Pf 0 -Po 0 
M 4.00000 1 (313.06, 1096.59, 0.00), (313.06, 1096.59), 50.00
M 4.00000 2 (1462.88, 57.33, 0.00), (1462.88, 57.33), 50.00
M 4.00000 3 (487.11, 1280.94, 0.00), (487.11, 1280.94), 50.00
M 4.00000 4 (761.52, 940.13, 0.00), (761.52, 940.13), 50.00
M 5.00000 1 (1276.27, 328.12, 0.00), (1276.27, 328.12), 50.00
M 5.00000 2 (727.53, 1130.71, 0.00), (727.53, 1130.71), 50.00
M 5.00000 3 (410.10, 62.25, 0.00), (410.10, 62.25), 50.00
M 5.00000 4 (746.96, 608.98, 0.00), (746.96, 608.98), 50.00
M 6.00000 1 (551.61, 985.68, 0.00), (551.61, 985.68), 50.00
M 6.00000 2 (301.47, 1225.92, 0.00), (301.47, 1225.92), 50.00
M 6.00000 3 (1480.68, 772.29, 0.00), (1480.68, 772.29), 50.00
M 6.00000 4 (441.71, 341.41, 0.00), (441.71, 341.41), 50.00
M 7.00000 1 (555.10, 1062.12, 0.00), (555.10, 1062.12), 50.00
M 7.00000 2 (1047.98, 370.87, 0.00), (1047.98, 370.87), 50.00
M 7.00000 3 (746.43, 828.79, 0.00), (746.43, 828.79), 50.00
M 7.00000 4 (424.39, 153.85, 0.00), (424.39, 153.85), 50.00
M 8.00000 1 (1331.34, 313.36, 0.00), (1331.34, 313.36), 50.00
M 8.00000 2 (190.92, 211.09, 0.00), (190.92, 211.09), 50.00
M 8.00000 3 (284.64, 384.35, 0.00), (284.64, 384.35), 50.00
M 8.00000 4 (799.20, 1127.69, 0.00), (799.20, 1127.69), 50.00
M 9.00000 1 (604.11, 1200.62, 0.00), (604.11, 1200.62), 50.00
M 9.00000 2 (746.37, 1190.63, 0.00), (746.37, 1190.63), 50.00
M 9.00000 3 (844.24, 616.47, 0.00), (844.24, 616.47), 50.00
M 9.00000 4 (447.93, 1338.71, 0.00), (447.93, 1338.71), 50.00
s -t 10.000000000 -Hs 1 -Hd -2 -Ni 1 -Nx 604.11 -Ny 1200.62 -Nz 0.00 -Ne -1.000000 -Nl AGT -Nw --- -Ma 0 -Md 0 -Ms 0 -Mt 0 -Is 1.0 -Id 0.0 -It tcp -Il 40 -If 1 -Ii 8 -Iv 32 -Pn tcp -Ps 0 -Pa 0 -Pf 0 -Po 0 
s -t 10.000000000 -Hs 2 -Hd -2 -Ni 2 -Nx 746.37 -Ny 1190.63 -Nz 0.00 -Ne -1.000000 -Nl AGT -Nw --- -Ma 0 -Md 0 -Ms 0 -Mt 0 -Is 2.0 -Id 0.1 -It tcp -Il 40 -If 1 -Ii 9 -Iv 32 -Pn tcp -Ps 0 -Pa 0 -Pf 0 -Po 0 
s -t 10.000000000 -Hs 3 -Hd -2 -Ni 3 -Nx 844.24 -Ny 616.47 -Nz 0.00 -Ne -1.000000 -Nl AGT -Nw --- -Ma 0 -Md 0 -Ms 0 -Mt 0 -Is 3.0 -Id 0.2 -It tcp -Il 40 -If 1 -Ii 10 -Iv 32 -Pn tcp -Ps 0 -Pa 0 -Pf 0 -Po 0 
s -t 10.000000000 -Hs 4 -Hd -2 -Ni 4 -Nx 447.93 -Ny 1338.71 -Nz 0.00 -Ne -1.000000 -Nl AGT -Nw --- -Ma 0 -Md 0 -Ms 0 -Mt 0 -Is 4.0 -Id 0.3 -It tcp -Il 40 -If 1 -Ii 11 -Iv 32 -Pn tcp -Ps 0 -Pa 0 -Pf 0 -Po 0 
M 10.00000 1 (1222.80, 177.21, 0.00), (1222.80, 177.21), 50.00
M 10.00000 2 (864.89, 1185.59, 0.00), (864.89, 1185.59), 50.00
M 10.00000 3 (182.77, 1262.82, 0.00), (182.77, 1262.82), 50.00
M 10.00000 4 (699.07, 1318.71, 0.00), (699.07, 1318.71), 50.00
M 11.00000 1 (1045.34, 952.16, 0.00), (1045.34, 952.16), 50.00
M 11.00000 2 (899.07, 1210.56, 0.00), (899.07, 1210.56), 50.00
M 11.00000 3 (1427.65, 542.58, 0.00), (1427.65, 542.58), 50.00
M 11.00000 4 (590.15, 653.15, 0.00), (590.15, 653.15), 50.00
M 12.00000 1 (413.03, 1373.84, 0.00), (413.03, 1373.84), 50.00
M 12.00000 2 (559.87, 173.52, 0.00), (559.87, 173.52), 50.00
M 12.00000 3 (291.20, 1186.52, 0.00), (291.20, 1186.52), 50.00
M 12.00000 4 (899.36, 121.69, 0.00), (899.36, 121.69), 50.00
M 13.00000 1 (705.09, 438.31, 0.00), (705.09, 438.31), 50.00
M 13.00000 2 (134.43, 422.29, 0.00), (134.43, 422.29), 50.00
M 13.00000 3 (992.05, 840.96, 0.00), (992.05, 840.96), 50.00
M 13.00000 4 (958.35, 1461.14, 0.00), (958.35, 1461.14), 50.00
M 14.00000 1 (930.33, 75.17, 0.00), (930.33, 75.17), 50.00
M 14.00000 2 (367.00, 186.03, 0.00), (367.00, 186.03), 50.00
M 14.00000 3 (550.17, 648.91, 0.00), (550.17, 648.91), 50.00
M 14.00000 4 (1302.75, 1372.30, 0.00), (1302.75, 1372.30), 50.00
M 15.00000 1 (180.88, 995.96, 0.00), (180.88, 995.96), 50.00
M 15.00000 2 (630.81, 84.98, 0.00), (630.81, 84.98), 50.00
M 15.00000 3 (175.06, 808.33, 0.00), (175.06, 808.33), 50.00
M 15.00000 4 (71.81, 871.49, 0.00), (71.81, 871.49), 50.00
M 16.00000 1 (1127.39, 37.51, 0.00), (1127.39, 37.51), 50.00
M 16.00000 2 (490.79, 128.71, 0.00), (490.79, 128.71), 50.00
M 16.00000 3 (290.80, 420.30, 0.00), (290.80, 420.30), 50.00
M 16.00000 4 (522.70, 963.03, 0.00), (522.70, 963.03), 50.00
M 17.00000 1 (632.06, 51.72, 0.00), (632.06, 51.72), 50.00
M 17.00000 2 (831.05, 899.22, 0.00), (831.05, 899.22), 50.00
M 17.00000 3 (771.43, 907.31, 0.00), (771.43, 907.31), 50.00
M 17.00000 4 (160.05, 499.82, 0.00), (160.05, 499.82), 50.00
M 18.00000 1 (420.90, 48.39, 0.00), (420.90, 48.39), 50.00
M 18.00000 2 (342.71, 1383.87, 0.00), (342.71, 1383.87), 50.00
M 18.00000 3 (1250.47, 153.68, 0.00), (1250.47, 153.68), 50.00
M 18.00000 4 (1401.30, 130.47, 0.00), (1401.30, 130.47), 50.00
M 19.00000 1 (1292.59, 45.38, 0.00), (1292.59, 45.38), 50.00
M 19.00000 2 (619.91, 1334.69, 0.00), (619.91, 1334.69), 50.00
M 19.00000 3 (1212.26, 1415.56, 0.00), (1212.26, 1415.56), 50.00
M 19.00000 4 (1276.04, 906.89, 0.00), (1276.04, 906.89), 50.00
d -t 20.000000000 -Hs 1 -Hd -2 -Ni 1 -Nx 546.85 -Ny 329.54 -Nz 0.00 -Ne -1.000000 -Nl RTR -Nw NRTE -Ma 0 -Md 0 -Ms 0 -Mt 0 -Is 1.0 -Id 0.0 -It tcp -Il 40 -If 1 -Ii 0 -Iv 30 -Pn tcp -Ps 0 -Pa 0 -Pf 0 -Po 0 
d -t 20.000000000 -Hs 1 -Hd -2 -Ni 1 -Nx 546.85 -Ny 329.54 -Nz 0.00 -Ne -1.000000 -Nl RTR -Nw NRTE -Ma 0 -Md 0 -Ms 0 -Mt 0 -Is 1.0 -Id 0.0 -It tcp -Il 40 -If 1 -Ii 4 -Iv 30 -Pn tcp -Ps 0 -Pa 0 -Pf 0 -Po 0 
d -t 20.000000000 -Hs 1 -Hd -2 -Ni 1 -Nx 546.85 -Ny 329.54 -Nz 0.00 -Ne -1.000000 -Nl RTR -Nw NRTE -Ma 0 -Md 0 -Ms 0 -Mt 0 -Is 1.0 -Id 0.0 -It tcp -Il 40 -If 1 -Ii 8 -Iv 30 -Pn tcp -Ps 0 -Pa 0 -Pf 0 -Po 0 
d -t 20.000000000 -Hs 2 -Hd -2 -Ni 2 -Nx 622.48 -Ny 992.44 -Nz 0.00 -Ne -1.000000 -Nl RTR -Nw NRTE -Ma 0 -Md 0 -Ms 0 -Mt 0 -Is 2.0 -Id 0.1 -It tcp -Il 40 -If 1 -Ii 1 -Iv 30 -Pn tcp -Ps 0 -Pa 0 -Pf 0 -Po 0 
d -t 20.000000000 -Hs 2 -Hd -2 -Ni 2 -Nx 622.48 -Ny 992.44 -Nz 0.00 -Ne -1.000000 -Nl RTR -Nw NRTE -Ma 0 -Md 0 -Ms 0 -Mt 0 -Is 2.0 -Id 0.1 -It tcp -Il 40 -If 1 -Ii 5 -Iv 30 -Pn tcp -Ps 0 -Pa 0 -Pf 0 -Po 0 
d -t 20.000000000 -Hs 2 -Hd -2 -Ni 2 -Nx 622.48 -Ny 992.44 -Nz 0.00 -Ne -1.000000 -Nl RTR -Nw NRTE -Ma 0 -Md 0 -Ms 0 -Mt 0 -Is 2.0 -Id 0.1 -It tcp -Il 40 -If 1 -Ii 9 -Iv 30 -Pn tcp -Ps 0 -Pa 0 -Pf 0 -Po 0 
d -t 20.000000000 -Hs 3 -Hd -2 -Ni 3 -Nx 1454.27 -Ny 915.48 -Nz 0.00 -Ne -1.000000 -Nl RTR -Nw NRTE -Ma 0 -Md 0 -Ms 0 -Mt 0 -Is 3.0 -Id 0.2 -It tcp -Il 40 -If 1 -Ii 2 -Iv 30 -Pn tcp -Ps 0 -Pa 0 -Pf 0 -Po 0 
d -t 20.000000000 -Hs 3 -Hd -2 -Ni 3 -Nx 1454.27 -Ny 915.48 -Nz 0.00 -Ne -1.000000 -Nl RTR -Nw NRTE -Ma 0 -Md 0 -Ms 0 -Mt 0 -Is 3.0 -Id 0.2 -It tcp -Il 40 -If 1 -Ii 6 -Iv 30 -Pn tcp -Ps 0 -Pa 0 -Pf 0 -Po 0 
d -t 20.000000000 -Hs 3 -Hd -2 -Ni 3 -Nx 1454.27 -Ny 915.48 -Nz 0.00 -Ne -1.000000 -Nl RTR -Nw NRTE -Ma 0 -Md 0 -Ms 0 -Mt 0 -Is 3.0 -Id 0.2 -It tcp -Il 40 -If 1 -Ii 10 -Iv 30 -Pn tcp -Ps 0 -Pa 0 -Pf 0 -Po 0 
d -t 20.000000000 -Hs 4 -Hd -2 -Ni 4 -Nx 980.82 -Ny 1126.41 -Nz 0.00 -Ne -1.000000 -Nl RTR -Nw NRTE -Ma 0 -Md 0 -Ms 0 -Mt 0 -Is 4.0 -Id 0.3 -It tcp -Il 40 -If 1 -Ii 3 -Iv 30 -Pn tcp -Ps 0 -Pa 0 -Pf 0 -Po 0 
d -t 20.000000000 -Hs 4 -Hd -2 -Ni 4 -Nx 980.82 -Ny 1126.41 -Nz 0.00 -Ne -1.000000 -Nl RTR -Nw NRTE -Ma 0 -Md 0 -Ms 0 -Mt 0 -Is 4.0 -Id 0.3 -It tcp -Il 40 -If 1 -Ii 7 -Iv 30 -Pn tcp -Ps 0 -Pa 0 -Pf 0 -Po 0 
d -t 20.000000000 -Hs 4 -Hd -2 -Ni 4 -Nx 980.82 -Ny 1126.41 -Nz 0.00 -Ne -1.000000 -Nl RTR -Nw NRTE -Ma 0 -Md 0 -Ms 0 -Mt 0 -Is 4.0 -Id 0.3 -It tcp -Il 40 -If 1 -Ii 11 -Iv 30 -Pn tcp -Ps 0 -Pa 0 -Pf 0 -Po 0 
M 20.00000 1 (546.85, 329.54, 0.00), (546.85, 329.54), 50.00
M 20.00000 2 (622.48, 992.44, 0.00), (622.48, 992.44), 50.00
M 20.00000 3 (1454.27, 915.48, 0.00), (1454.27, 915.48), 50.00
M 20.00000 4 (980.82, 1126.41, 0.00), (980.82, 1126.41), 50.00
M 21.00000 1 (21.85, 1255.28, 0.00), (21.85, 1255.28), 50.00
M 21.00000 2 (74.91, 451.38, 0.00), (74.91, 451.38), 50.00
M 21.00000 3 (829.03, 38.59, 0.00), (829.03, 38.59), 50.00
M 21.00000 4 (661.78, 92.94, 0.00), (661.78, 92.94), 50.00
s -t 22.000000000 -Hs 1 -Hd -2 -Ni 1 -Nx 21.85 -Ny 1255.28 -Nz 0.00 -Ne -1.000000 -Nl AGT -Nw --- -Ma 0 -Md 0 -Ms 0 -Mt 0 -Is 1.0 -Id 0.0 -It tcp -Il 40 -If 1 -Ii 12 -Iv 32 -Pn tcp -Ps 0 -Pa 0 -Pf 0 -Po 0 
s -t 22.000000000 -Hs 2 -Hd -2 -Ni 2 -Nx 74.91 -Ny 451.38 -Nz 0.00 -Ne -1.000000 -Nl AGT -Nw --- -Ma 0 -Md 0 -Ms 0 -Mt 0 -Is 2.0 -Id 0.1 -It tcp -Il 40 -If 1 -Ii 13 -Iv 32 -Pn tcp -Ps 0 -Pa 0 -Pf 0 -Po 0 
s -t 22.000000000 -Hs 3 -Hd -2 -Ni 3 -Nx 829.03 -Ny 38.59 -Nz 0.00 -Ne -1.000000 -Nl AGT -Nw --- -Ma 0 -Md 0 -Ms 0 -Mt 0 -Is 3.0 -Id 0.2 -It tcp -Il 40 -If 1 -Ii 14 -Iv 32 -Pn tcp -Ps 0 -Pa 0 -Pf 0 -Po 0 
s -t 22.000000000 -Hs 4 -Hd -2 -Ni 4 -Nx 661.78 -Ny 92.94 -Nz 0.00 -Ne -1.000000 -Nl AGT -Nw --- -Ma 0 -Md 0 -Ms 0 -Mt 0 -Is 4.0 -Id 0.3 -It tcp -Il 40 -If 1 -Ii 15 -Iv 32 -Pn tcp -Ps 0 -Pa 0 -Pf 0 -Po 0 
M 22.00000 1 (537.29, 202.50, 0.00), (537.29, 202.50), 50.00
M 22.00000 2 (1380.43, 457.23, 0.00), (1380.43, 457.23), 50.00
M 22.00000 3 (222.47, 1069.95, 0.00), (222.47, 1069.95), 50.00
M 22.00000 4 (630.04, 585.46, 0.00), (630.04, 585.46), 50.00
M 23.00000 1 (1355.87, 179.82, 0.00), (1355.87, 179.82), 50.00
M 23.00000 2 (1247.83, 850.59, 0.00), (1247.83, 850.59), 50.00
M 23.00000 3 (827.45, 447.47, 0.00), (827.45, 447.47), 50.00
M 23.00000 4 (1163.58, 770.88, 0.00), (1163.58, 770.88), 50.00
M 24.00000 1 (672.26, 688.11, 0.00), (672.26, 688.11), 50.00
M 24.00000 2 (142.27, 163.76, 0.00), (142.27, 163.76), 50.00
M 24.00000 3 (1236.77, 863.99, 0.00), (1236.77, 863.99), 50.00
M 24.00000 4 (1136.62, 654.92, 0.00), (1136.62, 654.92), 50.00
M 25.00000 1 (168.81, 728.98, 0.00), (168.81, 728.98), 50.00
M 25.00000 2 (1438.80, 388.59, 0.00), (1438.80, 388.59), 50.00
M 25.00000 3 (0.17, 1323.35, 0.00), (0.17, 1323.35), 50.00
M 25.00000 4 (1059.77, 486.57, 0.00), (1059.77, 486.57), 50.00
M 26.00000 1 (1347.12, 1481.75, 0.00), (1347.12, 1481.75), 50.00
M 26.00000 2 (698.03, 274.73, 0.00), (698.03, 274.73), 50.00
M 26.00000 3 (428.31, 159.46, 0.00), (428.31, 159.46), 50.00
M 26.00000 4 (1060.17, 1299.20, 0.00), (1060.17, 1299.20), 50.00
M 27.00000 1 (177.10, 502.16, 0.00), (177.10, 502.16), 50.00
M 27.00000 2 (837.01, 704.65, 0.00), (837.01, 704.65), 50.00
M 27.00000 3 (550.20, 1133.58, 0.00), (550.20, 1133.58), 50.00
M 27.00000 4 (609.13, 120.89, 0.00), (609.13, 120.89), 50.00
M 28.00000 1 (736.92, 1439.06, 0.00), (736.92, 1439.06), 50.00
M 28.00000 2 (225.82, 440.45, 0.00), (225.82, 440.45), 50.00
M 28.00000 3 (69.82, 436.50, 0.00), (69.82, 436.50), 50.00
M 28.00000 4 (1266.12, 696.39, 0.00), (1266.12, 696.39), 50.00
M 29.00000 1 (1284.77, 643.98, 0.00), (1284.77, 643.98), 50.00
M 29.00000 2 (955.16, 374.12, 0.00), (955.16, 374.12), 50.00
M 29.00000 3 (1299.52, 1023.78, 0.00), (1299.52, 1023.78), 50.00
M 29.00000 4 (252.12, 1435.74, 0.00), (252.12, 1435.74), 50.00
