M 0.00000 1 (1077.73, 841.23, 0.00), (1077.73, 841.23), 50.00
M 0.00000 2 (998.44, 360.89, 0.00), (998.44, 360.89), 50.00
M 0.00000 3 (966.75, 163.32, 0.00), (966.75, 163.32), 50.00
M 0.00000 4 (1473.34, 457.41, 0.00), (1473.34, 457.41), 50.00
s 1.000000000 _1_ AGT  --- 0 cbr 1000 [0 0 0 0] ------- [1:0 0:0 32 0] [0] 0 0
s 1.000000000 _2_ AGT  --- 1 cbr 1000 [0 0 0 0] ------- [2:0 0:1 32 0] [0] 0 0
s 1.000000000 _3_ AGT  --- 2 cbr 1000 [0 0 0 0] ------- [3:0 0:2 32 0] [0] 0 0
s 1.000000000 _4_ AGT  --- 3 cbr 1000 [0 0 0 0] ------- [4:0 0:3 32 0] [0] 0 0
M 1.00000 1 (249.64, 268.33, 0.00), (249.64, 268.33), 50.00
M 1.00000 2 (846.02, 557.96, 0.00), (846.02, 557.96), 50.00
M 1.00000 3 (1194.78, 231.94, 0.00), (1194.78, 231.94), 50.00
M 1.00000 4 (1205.51, 452.72, 0.00), (1205.51, 452.72), 50.00
s 1.008000000 _1_ AGT  --- 4 cbr 1000 [0 0 0 0] ------- [1:0 0:0 32 0] [1] 0 0
s 1.008000000 _2_ AGT  --- 5 cbr 1000 [0 0 0 0] ------- [2:0 0:1 32 0] [1] 0 0
s 1.008000000 _3_ AGT  --- 6 cbr 1000 [0 0 0 0] ------- [3:0 0:2 32 0] [1] 0 0
s 1.008000000 _4_ AGT  --- 7 cbr 1000 [0 0 0 0] ------- [4:0 0:3 32 0] [1] 0 0
s 1.016000000 _1_ AGT  --- 8 cbr 1000 [0 0 0 0] ------- [1:0 0:0 32 0] [2] 0 0
s 1.016000000 _2_ AGT  --- 9 cbr 1000 [0 0 0 0] ------- [2:0 0:1 32 0] [2] 0 0
s 1.016000000 _3_ AGT  --- 10 cbr 1000 [0 0 0 0] ------- [3:0 0:2 32 0] [2] 0 0
s 1.016000000 _4_ AGT  --- 11 cbr 1000 [0 0 0 0] ------- [4:0 0:3 32 0] [2] 0 0
s 1.024000000 _1_ AGT  --- 12 cbr 1000 [0 0 0 0] ------- [1:0 0:0 32 0] [3] 0 0
s 1.024000000 _2_ AGT  --- 13 cbr 1000 [0 0 0 0] ------- [2:0 0:1 32 0] [3] 0 0
s 1.024000000 _3_ AGT  --- 14 cbr 1000 [0 0 0 0] ------- [3:0 0:2 32 0] [3] 0 0
s 1.024000000 _4_ AGT  --- 15 cbr 1000 [0 0 0 0] ------- [4:0 0:3 32 0] [3] 0 0
s 1.032000000 _1_ AGT  --- 16 cbr 1000 [0 0 0 0] ------- [1:0 0:0 32 0] [4] 0 0
s 1.032000000 _2_ AGT  --- 17 cbr 1000 [0 0 0 0] ------- [2:0 0:1 32 0] [4] 0 0
s 1.032000000 _3_ AGT  --- 18 cbr 1000 [0 0 0 0] ------- [3:0 0:2 32 0] [4] 0 0
s 1.032000000 _4_ AGT  --- 19 cbr 1000 [0 0 0 0] ------- [4:0 0:3 32 0] [4] 0 0
s 1.040000000 _1_ AGT  --- 20 cbr 1000 [0 0 0 0] ------- [1:0 0:0 32 0] [5] 0 0
s 1.040000000 _2_ AGT  --- 21 cbr 1000 [0 0 0 0] ------- [2:0 0:1 32 0] [5] 0 0
s 1.040000000 _3_ AGT  --- 22 cbr 1000 [0 0 0 0] ------- [3:0 0:2 32 0] [5] 0 0
s 1.040000000 _4_ AGT  --- 23 cbr 1000 [0 0 0 0] ------- [4:0 0:3 32 0] [5] 0 0
s 1.048000000 _1_ AGT  --- 24 cbr 1000 [0 0 0 0] ------- [1:0 0:0 32 0] [6] 0 0
s 1.048000000 _2_ AGT  --- 25 cbr 1000 [0 0 0 0] ------- [2:0 0:1 32 0] [6] 0 0
s 1.048000000 _3_ AGT  --- 26 cbr 1000 [0 0 0 0] ------- [3:0 0:2 32 0] [6] 0 0
s 1.048000000 _4_ AGT  --- 27 cbr 1000 [0 0 0 0] ------- [4:0 0:3 32 0] [6] 0 0
s 1.056000000 _1_ AGT  --- 28 cbr 1000 [0 0 0 0] ------- [1:0 0:0 32 0] [7] 0 0
s 1.056000000 _2_ AGT  --- 29 cbr 1000 [0 0 0 0] ------- [2:0 0:1 32 0] [7] 0 0
s 1.056000000 _3_ AGT  --- 30 cbr 1000 [0 0 0 0] ------- [3:0 0:2 32 0] [7] 0 0
s 1.056000000 _4_ AGT  --- 31 cbr 1000 [0 0 0 0] ------- [4:0 0:3 32 0] [7] 0 0
s 1.064000000 _1_ AGT  --- 32 cbr 1000 [0 0 0 0] ------- [1:0 0:0 32 0] [8] 0 0
s 1.064000000 _2_ AGT  --- 33 cbr 1000 [0 0 0 0] ------- [2:0 0:1 32 0] [8] 0 0
s 1.064000000 _3_ AGT  --- 34 cbr 1000 [0 0 0 0] ------- [3:0 0:2 32 0] [8] 0 0
s 1.064000000 _4_ AGT  --- 35 cbr 1000 [0 0 0 0] ------- [4:0 0:3 32 0] [8] 0 0
s 1.072000000 _1_ AGT  --- 36 cbr 1000 [0 0 0 0] ------- [1:0 0:0 32 0] [9] 0 0
s 1.072000000 _2_ AGT  --- 37 cbr 1000 [0 0 0 0] ------- [2:0 0:1 32 0] [9] 0 0
s 1.072000000 _3_ AGT  --- 38 cbr 1000 [0 0 0 0] ------- [3:0 0:2 32 0] [9] 0 0
s 1.072000000 _4_ AGT  --- 39 cbr 1000 [0 0 0 0] ------- [4:0 0:3 32 0] [9] 0 0
s 1.080000000 _1_ AGT  --- 40 cbr 1000 [0 0 0 0] ------- [1:0 0:0 32 0] [10] 0 0
s 1.080000000 _2_ AGT  --- 41 cbr 1000 [0 0 0 0] ------- [2:0 0:1 32 0] [10] 0 0
s 1.080000000 _3_ AGT  --- 42 cbr 1000 [0 0 0 0] ------- [3:0 0:2 32 0] [10] 0 0
s 1.080000000 _4_ AGT  --- 43 cbr 1000 [0 0 0 0] ------- [4:0 0:3 32 0] [10] 0 0
s 1.088000000 _1_ AGT  --- 44 cbr 1000 [0 0 0 0] ------- [1:0 0:0 32 0] [11] 0 0
s 1.088000000 _2_ AGT  --- 45 cbr 1000 [0 0 0 0] ------- [2:0 0:1 32 0] [11] 0 0
s 1.088000000 _3_ AGT  --- 46 cbr 1000 [0 0 0 0] ------- [3:0 0:2 32 0] [11] 0 0
s 1.088000000 _4_ AGT  --- 47 cbr 1000 [0 0 0 0] ------- [4:0 0:3 32 0] [11] 0 0
s 1.096000000 _1_ AGT  --- 48 cbr 1000 [0 0 0 0] ------- [1:0 0:0 32 0] [12] 0 0
s 1.096000000 _2_ AGT  --- 49 cbr 1000 [0 0 0 0] ------- [2:0 0:1 32 0] [12] 0 0
s 1.096000000 _3_ AGT  --- 50 cbr 1000 [0 0 0 0] ------- [3:0 0:2 32 0] [12] 0 0
s 1.096000000 _4_ AGT  --- 51 cbr 1000 [0 0 0 0] ------- [4:0 0:3 32 0] [12] 0 0
s 1.104000000 _1_ AGT  --- 52 cbr 1000 [0 0 0 0] ------- [1:0 0:0 32 0] [13] 0 0
s 1.104000000 _2_ AGT  --- 53 cbr 1000 [0 0 0 0] ------- [2:0 0:1 32 0] [13] 0 0
s 1.104000000 _3_ AGT  --- 54 cbr 1000 [0 0 0 0] ------- [3:0 0:2 32 0] [13] 0 0
s 1.104000000 _4_ AGT  --- 55 cbr 1000 [0 0 0 0] ------- [4:0 0:3 32 0] [13] 0 0
s 1.112000000 _1_ AGT  --- 56 cbr 1000 [0 0 0 0] ------- [1:0 0:0 32 0] [14] 0 0
s 1.112000000 _2_ AGT  --- 57 cbr 1000 [0 0 0 0] ------- [2:0 0:1 32 0] [14] 0 0
s 1.112000000 _3_ AGT  --- 58 cbr 1000 [0 0 0 0] ------- [3:0 0:2 32 0] [14] 0 0
s 1.112000000 _4_ AGT  --- 59 cbr 1000 [0 0 0 0] ------- [4:0 0:3 32 0] [14] 0 0
s 1.120000000 _1_ AGT  --- 60 cbr 1000 [0 0 0 0] ------- [1:0 0:0 32 0] [15] 0 0
s 1.120000000 _2_ AGT  --- 61 cbr 1000 [0 0 0 0] ------- [2:0 0:1 32 0] [15] 0 0
s 1.120000000 _3_ AGT  --- 62 cbr 1000 [0 0 0 0] ------- [3:0 0:2 32 0] [15] 0 0
s 1.120000000 _4_ AGT  --- 63 cbr 1000 [0 0 0 0] ------- [4:0 0:3 32 0] [15] 0 0
s 1.128000000 _1_ AGT  --- 64 cbr 1000 [0 0 0 0] ------- [1:0 0:0 32 0] [16] 0 0
s 1.128000000 _2_ AGT  --- 65 cbr 1000 [0 0 0 0] ------- [2:0 0:1 32 0] [16] 0 0
s 1.128000000 _3_ AGT  --- 66 cbr 1000 [0 0 0 0] ------- [3:0 0:2 32 0] [16] 0 0
s 1.128000000 _4_ AGT  --- 67 cbr 1000 [0 0 0 0] ------- [4:0 0:3 32 0] [16] 0 0
s 1.136000000 _1_ AGT  --- 68 cbr 1000 [0 0 0 0] ------- [1:0 0:0 32 0] [17] 0 0
s 1.136000000 _2_ AGT  --- 69 cbr 1000 [0 0 0 0] ------- [2:0 0:1 32 0] [17] 0 0
s 1.136000000 _3_ AGT  --- 70 cbr 1000 [0 0 0 0] ------- [3:0 0:2 32 0] [17] 0 0
s 1.136000000 _4_ AGT  --- 71 cbr 1000 [0 0 0 0] ------- [4:0 0:3 32 0] [17] 0 0
s 1.144000000 _1_ AGT  --- 72 cbr 1000 [0 0 0 0] ------- [1:0 0:0 32 0] [18] 0 0
s 1.144000000 _2_ AGT  --- 73 cbr 1000 [0 0 0 0] ------- [2:0 0:1 32 0] [18] 0 0
s 1.144000000 _3_ AGT  --- 74 cbr 1000 [0 0 0 0] ------- [3:0 0:2 32 0] [18] 0 0
s 1.144000000 _4_ AGT  --- 75 cbr 1000 [0 0 0 0] ------- [4:0 0:3 32 0] [18] 0 0
s 1.152000000 _1_ AGT  --- 76 cbr 1000 [0 0 0 0] ------- [1:0 0:0 32 0] [19] 0 0
s 1.152000000 _2_ AGT  --- 77 cbr 1000 [0 0 0 0] ------- [2:0 0:1 32 0] [19] 0 0
s 1.152000000 _3_ AGT  --- 78 cbr 1000 [0 0 0 0] ------- [3:0 0:2 32 0] [19] 0 0
s 1.152000000 _4_ AGT  --- 79 cbr 1000 [0 0 0 0] ------- [4:0 0:3 32 0] [19] 0 0
s 1.160000000 _1_ AGT  --- 80 cbr 1000 [0 0 0 0] ------- [1:0 0:0 32 0] [20] 0 0
s 1.160000000 _2_ AGT  --- 81 cbr 1000 [0 0 0 0] ------- [2:0 0:1 32 0] [20] 0 0
s 1.160000000 _3_ AGT  --- 82 cbr 1000 [0 0 0 0] ------- [3:0 0:2 32 0] [20] 0 0
s 1.160000000 _4_ AGT  --- 83 cbr 1000 [0 0 0 0] ------- [4:0 0:3 32 0] [20] 0 0
s 1.168000000 _1_ AGT  --- 84 cbr 1000 [0 0 0 0] ------- [1:0 0:0 32 0] [21] 0 0
s 1.168000000 _2_ AGT  --- 85 cbr 1000 [0 0 0 0] ------- [2:0 0:1 32 0] [21] 0 0
s 1.168000000 _3_ AGT  --- 86 cbr 1000 [0 0 0 0] ------- [3:0 0:2 32 0] [21] 0 0
s 1.168000000 _4_ AGT  --- 87 cbr 1000 [0 0 0 0] ------- [4:0 0:3 32 0] [21] 0 0
s 1.176000000 _1_ AGT  --- 88 cbr 1000 [0 0 0 0] ------- [1:0 0:0 32 0] [22] 0 0
s 1.176000000 _2_ AGT  --- 89 cbr 1000 [0 0 0 0] ------- [2:0 0:1 32 0] [22] 0 0
s 1.176000000 _3_ AGT  --- 90 cbr 1000 [0 0 0 0] ------- [3:0 0:2 32 0] [22] 0 0
s 1.176000000 _4_ AGT  --- 91 cbr 1000 [0 0 0 0] ------- [4:0 0:3 32 0] [22] 0 0
s 1.184000000 _1_ AGT  --- 92 cbr 1000 [0 0 0 0] ------- [1:0 0:0 32 0] [23] 0 0
s 1.184000000 _2_ AGT  --- 93 cbr 1000 [0 0 0 0] ------- [2:0 0:1 32 0] [23] 0 0
s 1.184000000 _3_ AGT  --- 94 cbr 1000 [0 0 0 0] ------- [3:0 0:2 32 0] [23] 0 0
s 1.184000000 _4_ AGT  --- 95 cbr 1000 [0 0 0 0] ------- [4:0 0:3 32 0] [23] 0 0
s 1.192000000 _1_ AGT  --- 96 cbr 1000 [0 0 0 0] ------- [1:0 0:0 32 0] [24] 0 0
s 1.192000000 _2_ AGT  --- 97 cbr 1000 [0 0 0 0] ------- [2:0 0:1 32 0] [24] 0 0
s 1.192000000 _3_ AGT  --- 98 cbr 1000 [0 0 0 0] ------- [3:0 0:2 32 0] [24] 0 0
s 1.192000000 _4_ AGT  --- 99 cbr 1000 [0 0 0 0] ------- [4:0 0:3 32 0] [24] 0 0
s 1.200000000 _1_ AGT  --- 100 cbr 1000 [0 0 0 0] ------- [1:0 0:0 32 0] [25] 0 0
s 1.200000000 _2_ AGT  --- 101 cbr 1000 [0 0 0 0] ------- [2:0 0:1 32 0] [25] 0 0
s 1.200000000 _3_ AGT  --- 102 cbr 1000 [0 0 0 0] ------- [3:0 0:2 32 0] [25] 0 0
s 1.200000000 _4_ AGT  --- 103 cbr 1000 [0 0 0 0] ------- [4:0 0:3 32 0] [25] 0 0
s 1.208000000 _1_ AGT  --- 104 cbr 1000 [0 0 0 0] ------- [1:0 0:0 32 0] [26] 0 0
s 1.208000000 _2_ AGT  --- 105 cbr 1000 [0 0 0 0] ------- [2:0 0:1 32 0] [26] 0 0
s 1.208000000 _3_ AGT  --- 106 cbr 1000 [0 0 0 0] ------- [3:0 0:2 32 0] [26] 0 0
s 1.208000000 _4_ AGT  --- 107 cbr 1000 [0 0 0 0] ------- [4:0 0:3 32 0] [26] 0 0
s 1.216000000 _1_ AGT  --- 108 cbr 1000 [0 0 0 0] ------- [1:0 0:0 32 0] [27] 0 0
s 1.216000000 _2_ AGT  --- 109 cbr 1000 [0 0 0 0] ------- [2:0 0:1 32 0] [27] 0 0
s 1.216000000 _3_ AGT  --- 110 cbr 1000 [0 0 0 0] ------- [3:0 0:2 32 0] [27] 0 0
s 1.216000000 _4_ AGT  --- 111 cbr 1000 [0 0 0 0] ------- [4:0 0:3 32 0] [27] 0 0
s 1.224000000 _1_ AGT  --- 112 cbr 1000 [0 0 0 0] ------- [1:0 0:0 32 0] [28] 0 0
s 1.224000000 _2_ AGT  --- 113 cbr 1000 [0 0 0 0] ------- [2:0 0:1 32 0] [28] 0 0
s 1.224000000 _3_ AGT  --- 114 cbr 1000 [0 0 0 0] ------- [3:0 0:2 32 0] [28] 0 0
s 1.224000000 _4_ AGT  --- 115 cbr 1000 [0 0 0 0] ------- [4:0 0:3 32 0] [28] 0 0
s 1.232000000 _1_ AGT  --- 116 cbr 1000 [0 0 0 0] ------- [1:0 0:0 32 0] [29] 0 0
s 1.232000000 _2_ AGT  --- 117 cbr 1000 [0 0 0 0] ------- [2:0 0:1 32 0] [29] 0 0
s 1.232000000 _3_ AGT  --- 118 cbr 1000 [0 0 0 0] ------- [3:0 0:2 32 0] [29] 0 0
s 1.232000000 _4_ AGT  --- 119 cbr 1000 [0 0 0 0] ------- [4:0 0:3 32 0] [29] 0 0
s 1.240000000 _1_ AGT  --- 120 cbr 1000 [0 0 0 0] ------- [1:0 0:0 32 0] [30] 0 0
s 1.240000000 _2_ AGT  --- 121 cbr 1000 [0 0 0 0] ------- [2:0 0:1 32 0] [30] 0 0
s 1.240000000 _3_ AGT  --- 122 cbr 1000 [0 0 0 0] ------- [3:0 0:2 32 0] [30] 0 0
s 1.240000000 _4_ AGT  --- 123 cbr 1000 [0 0 0 0] ------- [4:0 0:3 32 0] [30] 0 0
s 1.248000000 _1_ AGT  --- 124 cbr 1000 [0 0 0 0] ------- [1:0 0:0 32 0] [31] 0 0
s 1.248000000 _2_ AGT  --- 125 cbr 1000 [0 0 0 0] ------- [2:0 0:1 32 0] [31] 0 0
s 1.248000000 _3_ AGT  --- 126 cbr 1000 [0 0 0 0] ------- [3:0 0:2 32 0] [31] 0 0
s 1.248000000 _4_ AGT  --- 127 cbr 1000 [0 0 0 0] ------- [4:0 0:3 32 0] [31] 0 0
s 1.256000000 _1_ AGT  --- 128 cbr 1000 [0 0 0 0] ------- [1:0 0:0 32 0] [32] 0 0
s 1.256000000 _2_ AGT  --- 129 cbr 1000 [0 0 0 0] ------- [2:0 0:1 32 0] [32] 0 0
s 1.256000000 _3_ AGT  --- 130 cbr 1000 [0 0 0 0] ------- [3:0 0:2 32 0] [32] 0 0
s 1.256000000 _4_ AGT  --- 131 cbr 1000 [0 0 0 0] ------- [4:0 0:3 32 0] [32] 0 0
s 1.264000000 _1_ AGT  --- 132 cbr 1000 [0 0 0 0] ------- [1:0 0:0 32 0] [33] 0 0
s 1.264000000 _2_ AGT  --- 133 cbr 1000 [0 0 0 0] ------- [2:0 0:1 32 0] [33] 0 0
s 1.264000000 _3_ AGT  --- 134 cbr 1000 [0 0 0 0] ------- [3:0 0:2 32 0] [33] 0 0
s 1.264000000 _4_ AGT  --- 135 cbr 1000 [0 0 0 0] ------- [4:0 0:3 32 0] [33] 0 0
s 1.272000000 _1_ AGT  --- 136 cbr 1000 [0 0 0 0] ------- [1:0 0:0 32 0] [34] 0 0
s 1.272000000 _2_ AGT  --- 137 cbr 1000 [0 0 0 0] ------- [2:0 0:1 32 0] [34] 0 0
s 1.272000000 _3_ AGT  --- 138 cbr 1000 [0 0 0 0] ------- [3:0 0:2 32 0] [34] 0 0
s 1.272000000 _4_ AGT  --- 139 cbr 1000 [0 0 0 0] ------- [4:0 0:3 32 0] [34] 0 0
s 1.280000000 _1_ AGT  --- 140 cbr 1000 [0 0 0 0] ------- [1:0 0:0 32 0] [35] 0 0
s 1.280000000 _2_ AGT  --- 141 cbr 1000 [0 0 0 0] ------- [2:0 0:1 32 0] [35] 0 0
s 1.280000000 _3_ AGT  --- 142 cbr 1000 [0 0 0 0] ------- [3:0 0:2 32 0] [35] 0 0
s 1.280000000 _4_ AGT  --- 143 cbr 1000 [0 0 0 0] ------- [4:0 0:3 32 0] [35] 0 0
s 1.288000000 _1_ AGT  --- 144 cbr 1000 [0 0 0 0] ------- [1:0 0:0 32 0] [36] 0 0
s 1.288000000 _2_ AGT  --- 145 cbr 1000 [0 0 0 0] ------- [2:0 0:1 32 0] [36] 0 0
s 1.288000000 _3_ AGT  --- 146 cbr 1000 [0 0 0 0] ------- [3:0 0:2 32 0] [36] 0 0
s 1.288000000 _4_ AGT  --- 147 cbr 1000 [0 0 0 0] ------- [4:0 0:3 32 0] [36] 0 0
s 1.296000000 _1_ AGT  --- 148 cbr 1000 [0 0 0 0] ------- [1:0 0:0 32 0] [37] 0 0
s 1.296000000 _2_ AGT  --- 149 cbr 1000 [0 0 0 0] ------- [2:0 0:1 32 0] [37] 0 0
s 1.296000000 _3_ AGT  --- 150 cbr 1000 [0 0 0 0] ------- [3:0 0:2 32 0] [37] 0 0
s 1.296000000 _4_ AGT  --- 151 cbr 1000 [0 0 0 0] ------- [4:0 0:3 32 0] [37] 0 0
s 1.304000000 _1_ AGT  --- 152 cbr 1000 [0 0 0 0] ------- [1:0 0:0 32 0] [38] 0 0
s 1.304000000 _2_ AGT  --- 153 cbr 1000 [0 0 0 0] ------- [2:0 0:1 32 0] [38] 0 0
s 1.304000000 _3_ AGT  --- 154 cbr 1000 [0 0 0 0] ------- [3:0 0:2 32 0] [38] 0 0
s 1.304000000 _4_ AGT  --- 155 cbr 1000 [0 0 0 0] ------- [4:0 0:3 32 0] [38] 0 0
s 1.312000000 _1_ AGT  --- 156 cbr 1000 [0 0 0 0] ------- [1:0 0:0 32 0] [39] 0 0
s 1.312000000 _2_ AGT  --- 157 cbr 1000 [0 0 0 0] ------- [2:0 0:1 32 0] [39] 0 0
s 1.312000000 _3_ AGT  --- 158 cbr 1000 [0 0 0 0] ------- [3:0 0:2 32 0] [39] 0 0
s 1.312000000 _4_ AGT  --- 159 cbr 1000 [0 0 0 0] ------- [4:0 0:3 32 0] [39] 0 0
s 1.320000000 _1_ AGT  --- 160 cbr 1000 [0 0 0 0] ------- [1:0 0:0 32 0] [40] 0 0
s 1.320000000 _2_ AGT  --- 161 cbr 1000 [0 0 0 0] ------- [2:0 0:1 32 0] [40] 0 0
s 1.320000000 _3_ AGT  --- 162 cbr 1000 [0 0 0 0] ------- [3:0 0:2 32 0] [40] 0 0
s 1.320000000 _4_ AGT  --- 163 cbr 1000 [0 0 0 0] ------- [4:0 0:3 32 0] [40] 0 0
s 1.328000000 _1_ AGT  --- 164 cbr 1000 [0 0 0 0] ------- [1:0 0:0 32 0] [41] 0 0
s 1.328000000 _2_ AGT  --- 165 cbr 1000 [0 0 0 0] ------- [2:0 0:1 32 0] [41] 0 0
s 1.328000000 _3_ AGT  --- 166 cbr 1000 [0 0 0 0] ------- [3:0 0:2 32 0] [41] 0 0
s 1.328000000 _4_ AGT  --- 167 cbr 1000 [0 0 0 0] ------- [4:0 0:3 32 0] [41] 0 0
s 1.336000000 _1_ AGT  --- 168 cbr 1000 [0 0 0 0] ------- [1:0 0:0 32 0] [42] 0 0
s 1.336000000 _2_ AGT  --- 169 cbr 1000 [0 0 0 0] ------- [2:0 0:1 32 0] [42] 0 0
s 1.336000000 _3_ AGT  --- 170 cbr 1000 [0 0 0 0] ------- [3:0 0:2 32 0] [42] 0 0
s 1.336000000 _4_ AGT  --- 171 cbr 1000 [0 0 0 0] ------- [4:0 0:3 32 0] [42] 0 0
s 1.344000000 _1_ AGT  --- 172 cbr 1000 [0 0 0 0] ------- [1:0 0:0 32 0] [43] 0 0
s 1.344000000 _2_ AGT  --- 173 cbr 1000 [0 0 0 0] ------- [2:0 0:1 32 0] [43] 0 0
s 1.344000000 _3_ AGT  --- 174 cbr 1000 [0 0 0 0] ------- [3:0 0:2 32 0] [43] 0 0
s 1.344000000 _4_ AGT  --- 175 cbr 1000 [0 0 0 0] ------- [4:0 0:3 32 0] [43] 0 0
s 1.352000000 _1_ AGT  --- 176 cbr 1000 [0 0 0 0] ------- [1:0 0:0 32 0] [44] 0 0
s 1.352000000 _2_ AGT  --- 177 cbr 1000 [0 0 0 0] ------- [2:0 0:1 32 0] [44] 0 0
s 1.352000000 _3_ AGT  --- 178 cbr 1000 [0 0 0 0] ------- [3:0 0:2 32 0] [44] 0 0
s 1.352000000 _4_ AGT  --- 179 cbr 1000 [0 0 0 0] ------- [4:0 0:3 32 0] [44] 0 0
s 1.360000000 _1_ AGT  --- 180 cbr 1000 [0 0 0 0] ------- [1:0 0:0 32 0] [45] 0 0
s 1.360000000 _2_ AGT  --- 181 cbr 1000 [0 0 0 0] ------- [2:0 0:1 32 0] [45] 0 0
s 1.360000000 _3_ AGT  --- 182 cbr 1000 [0 0 0 0] ------- [3:0 0:2 32 0] [45] 0 0
s 1.360000000 _4_ AGT  --- 183 cbr 1000 [0 0 0 0] ------- [4:0 0:3 32 0] [45] 0 0
s 1.368000000 _1_ AGT  --- 184 cbr 1000 [0 0 0 0] ------- [1:0 0:0 32 0] [46] 0 0
s 1.368000000 _2_ AGT  --- 185 cbr 1000 [0 0 0 0] ------- [2:0 0:1 32 0] [46] 0 0
s 1.368000000 _3_ AGT  --- 186 cbr 1000 [0 0 0 0] ------- [3:0 0:2 32 0] [46] 0 0
s 1.368000000 _4_ AGT  --- 187 cbr 1000 [0 0 0 0] ------- [4:0 0:3 32 0] [46] 0 0
s 1.376000000 _1_ AGT  --- 188 cbr 1000 [0 0 0 0] ------- [1:0 0:0 32 0] [47] 0 0
s 1.376000000 _2_ AGT  --- 189 cbr 1000 [0 0 0 0] ------- [2:0 0:1 32 0] [47] 0 0
s 1.376000000 _3_ AGT  --- 190 cbr 1000 [0 0 0 0] ------- [3:0 0:2 32 0] [47] 0 0
s 1.376000000 _4_ AGT  --- 191 cbr 1000 [0 0 0 0] ------- [4:0 0:3 32 0] [47] 0 0
s 1.384000000 _1_ AGT  --- 192 cbr 1000 [0 0 0 0] ------- [1:0 0:0 32 0] [48] 0 0
s 1.384000000 _2_ AGT  --- 193 cbr 1000 [0 0 0 0] ------- [2:0 0:1 32 0] [48] 0 0
s 1.384000000 _3_ AGT  --- 194 cbr 1000 [0 0 0 0] ------- [3:0 0:2 32 0] [48] 0 0
s 1.384000000 _4_ AGT  --- 195 cbr 1000 [0 0 0 0] ------- [4:0 0:3 32 0] [48] 0 0
s 1.392000000 _1_ AGT  --- 196 cbr 1000 [0 0 0 0] ------- [1:0 0:0 32 0] [49] 0 0
s 1.392000000 _2_ AGT  --- 197 cbr 1000 [0 0 0 0] ------- [2:0 0:1 32 0] [49] 0 0
s 1.392000000 _3_ AGT  --- 198 cbr 1000 [0 0 0 0] ------- [3:0 0:2 32 0] [49] 0 0
s 1.392000000 _4_ AGT  --- 199 cbr 1000 [0 0 0 0] ------- [4:0 0:3 32 0] [49] 0 0
s 1.400000000 _1_ AGT  --- 200 cbr 1000 [0 0 0 0] ------- [1:0 0:0 32 0] [50] 0 0
s 1.400000000 _2_ AGT  --- 201 cbr 1000 [0 0 0 0] ------- [2:0 0:1 32 0] [50] 0 0
s 1.400000000 _3_ AGT  --- 202 cbr 1000 [0 0 0 0] ------- [3:0 0:2 32 0] [50] 0 0
s 1.400000000 _4_ AGT  --- 203 cbr 1000 [0 0 0 0] ------- [4:0 0:3 32 0] [50] 0 0
s 1.408000000 _1_ AGT  --- 204 cbr 1000 [0 0 0 0] ------- [1:0 0:0 32 0] [51] 0 0
s 1.408000000 _2_ AGT  --- 205 cbr 1000 [0 0 0 0] ------- [2:0 0:1 32 0] [51] 0 0
s 1.408000000 _3_ AGT  --- 206 cbr 1000 [0 0 0 0] ------- [3:0 0:2 32 0] [51] 0 0
s 1.408000000 _4_ AGT  --- 207 cbr 1000 [0 0 0 0] ------- [4:0 0:3 32 0] [51] 0 0
s 1.416000000 _1_ AGT  --- 208 cbr 1000 [0 0 0 0] ------- [1:0 0:0 32 0] [52] 0 0
s 1.416000000 _2_ AGT  --- 209 cbr 1000 [0 0 0 0] ------- [2:0 0:1 32 0] [52] 0 0
s 1.416000000 _3_ AGT  --- 210 cbr 1000 [0 0 0 0] ------- [3:0 0:2 32 0] [52] 0 0
s 1.416000000 _4_ AGT  --- 211 cbr 1000 [0 0 0 0] ------- [4:0 0:3 32 0] [52] 0 0
s 1.424000000 _1_ AGT  --- 212 cbr 1000 [0 0 0 0] ------- [1:0 0:0 32 0] [53] 0 0
s 1.424000000 _2_ AGT  --- 213 cbr 1000 [0 0 0 0] ------- [2:0 0:1 32 0] [53] 0 0
s 1.424000000 _3_ AGT  --- 214 cbr 1000 [0 0 0 0] ------- [3:0 0:2 32 0] [53] 0 0
s 1.424000000 _4_ AGT  --- 215 cbr 1000 [0 0 0 0] ------- [4:0 0:3 32 0] [53] 0 0
s 1.432000000 _1_ AGT  --- 216 cbr 1000 [0 0 0 0] ------- [1:0 0:0 32 0] [54] 0 0
s 1.432000000 _2_ AGT  --- 217 cbr 1000 [0 0 0 0] ------- [2:0 0:1 32 0] [54] 0 0
s 1.432000000 _3_ AGT  --- 218 cbr 1000 [0 0 0 0] ------- [3:0 0:2 32 0] [54] 0 0
s 1.432000000 _4_ AGT  --- 219 cbr 1000 [0 0 0 0] ------- [4:0 0:3 32 0] [54] 0 0
s 1.440000000 _1_ AGT  --- 220 cbr 1000 [0 0 0 0] ------- [1:0 0:0 32 0] [55] 0 0
s 1.440000000 _2_ AGT  --- 221 cbr 1000 [0 0 0 0] ------- [2:0 0:1 32 0] [55] 0 0
s 1.440000000 _3_ AGT  --- 222 cbr 1000 [0 0 0 0] ------- [3:0 0:2 32 0] [55] 0 0
s 1.440000000 _4_ AGT  --- 223 cbr 1000 [0 0 0 0] ------- [4:0 0:3 32 0] [55] 0 0
s 1.448000000 _1_ AGT  --- 224 cbr 1000 [0 0 0 0] ------- [1:0 0:0 32 0] [56] 0 0
s 1.448000000 _2_ AGT  --- 225 cbr 1000 [0 0 0 0] ------- [2:0 0:1 32 0] [56] 0 0
s 1.448000000 _3_ AGT  --- 226 cbr 1000 [0 0 0 0] ------- [3:0 0:2 32 0] [56] 0 0
s 1.448000000 _4_ AGT  --- 227 cbr 1000 [0 0 0 0] ------- [4:0 0:3 32 0] [56] 0 0
s 1.456000000 _1_ AGT  --- 228 cbr 1000 [0 0 0 0] ------- [1:0 0:0 32 0] [57] 0 0
s 1.456000000 _2_ AGT  --- 229 cbr 1000 [0 0 0 0] ------- [2:0 0:1 32 0] [57] 0 0
s 1.456000000 _3_ AGT  --- 230 cbr 1000 [0 0 0 0] ------- [3:0 0:2 32 0] [57] 0 0
s 1.456000000 _4_ AGT  --- 231 cbr 1000 [0 0 0 0] ------- [4:0 0:3 32 0] [57] 0 0
s 1.464000000 _1_ AGT  --- 232 cbr 1000 [0 0 0 0] ------- [1:0 0:0 32 0] [58] 0 0
s 1.464000000 _2_ AGT  --- 233 cbr 1000 [0 0 0 0] ------- [2:0 0:1 32 0] [58] 0 0
s 1.464000000 _3_ AGT  --- 234 cbr 1000 [0 0 0 0] ------- [3:0 0:2 32 0] [58] 0 0
s 1.464000000 _4_ AGT  --- 235 cbr 1000 [0 0 0 0] ------- [4:0 0:3 32 0] [58] 0 0
s 1.472000000 _1_ AGT  --- 236 cbr 1000 [0 0 0 0] ------- [1:0 0:0 32 0] [59] 0 0
s 1.472000000 _2_ AGT  --- 237 cbr 1000 [0 0 0 0] ------- [2:0 0:1 32 0] [59] 0 0
s 1.472000000 _3_ AGT  --- 238 cbr 1000 [0 0 0 0] ------- [3:0 0:2 32 0] [59] 0 0
s 1.472000000 _4_ AGT  --- 239 cbr 1000 [0 0 0 0] ------- [4:0 0:3 32 0] [59] 0 0
s 1.480000000 _1_ AGT  --- 240 cbr 1000 [0 0 0 0] ------- [1:0 0:0 32 0] [60] 0 0
s 1.480000000 _2_ AGT  --- 241 cbr 1000 [0 0 0 0] ------- [2:0 0:1 32 0] [60] 0 0
s 1.480000000 _3_ AGT  --- 242 cbr 1000 [0 0 0 0] ------- [3:0 0:2 32 0] [60] 0 0
s 1.480000000 _4_ AGT  --- 243 cbr 1000 [0 0 0 0] ------- [4:0 0:3 32 0] [60] 0 0
s 1.488000000 _1_ AGT  --- 244 cbr 1000 [0 0 0 0] ------- [1:0 0:0 32 0] [61] 0 0
s 1.488000000 _2_ AGT  --- 245 cbr 1000 [0 0 0 0] ------- [2:0 0:1 32 0] [61] 0 0
s 1.488000000 _3_ AGT  --- 246 cbr 1000 [0 0 0 0] ------- [3:0 0:2 32 0] [61] 0 0
s 1.488000000 _4_ AGT  --- 247 cbr 1000 [0 0 0 0] ------- [4:0 0:3 32 0] [61] 0 0
s 1.496000000 _1_ AGT  --- 248 cbr 1000 [0 0 0 0] ------- [1:0 0:0 32 0] [62] 0 0
s 1.496000000 _2_ AGT  --- 249 cbr 1000 [0 0 0 0] ------- [2:0 0:1 32 0] [62] 0 0
s 1.496000000 _3_ AGT  --- 250 cbr 1000 [0 0 0 0] ------- [3:0 0:2 32 0] [62] 0 0
s 1.496000000 _4_ AGT  --- 251 cbr 1000 [0 0 0 0] ------- [4:0 0:3 32 0] [62] 0 0
s 1.504000000 _1_ AGT  --- 252 cbr 1000 [0 0 0 0] ------- [1:0 0:0 32 0] [63] 0 0
s 1.504000000 _2_ AGT  --- 253 cbr 1000 [0 0 0 0] ------- [2:0 0:1 32 0] [63] 0 0
s 1.504000000 _3_ AGT  --- 254 cbr 1000 [0 0 0 0] ------- [3:0 0:2 32 0] [63] 0 0
s 1.504000000 _4_ AGT  --- 255 cbr 1000 [0 0 0 0] ------- [4:0 0:3 32 0] [63] 0 0
s 1.512000000 _1_ AGT  --- 256 cbr 1000 [0 0 0 0] ------- [1:0 0:0 32 0] [64] 0 0
D 1.512000000 _1_ RTR  IFQ 0 cbr 1020 [0 0 0 0] ------- [1:0 0:0 30 0] [0] 0 0
s 1.512000000 _2_ AGT  --- 257 cbr 1000 [0 0 0 0] ------- [2:0 0:1 32 0] [64] 0 0
D 1.512000000 _2_ RTR  IFQ 1 cbr 1020 [0 0 0 0] ------- [2:0 0:1 30 0] [0] 0 0
s 1.512000000 _3_ AGT  --- 258 cbr 1000 [0 0 0 0] ------- [3:0 0:2 32 0] [64] 0 0
D 1.512000000 _3_ RTR  IFQ 2 cbr 1020 [0 0 0 0] ------- [3:0 0:2 30 0] [0] 0 0
s 1.512000000 _4_ AGT  --- 259 cbr 1000 [0 0 0 0] ------- [4:0 0:3 32 0] [64] 0 0
D 1.512000000 _4_ RTR  IFQ 3 cbr 1020 [0 0 0 0] ------- [4:0 0:3 30 0] [0] 0 0
s 1.520000000 _1_ AGT  --- 260 cbr 1000 [0 0 0 0] ------- [1:0 0:0 32 0] [65] 0 0
D 1.520000000 _1_ RTR  IFQ 4 cbr 1020 [0 0 0 0] ------- [1:0 0:0 30 0] [1] 0 0
s 1.520000000 _2_ AGT  --- 261 cbr 1000 [0 0 0 0] ------- [2:0 0:1 32 0] [65] 0 0
D 1.520000000 _2_ RTR  IFQ 5 cbr 1020 [0 0 0 0] ------- [2:0 0:1 30 0] [1] 0 0
s 1.520000000 _3_ AGT  --- 262 cbr 1000 [0 0 0 0] ------- [3:0 0:2 32 0] [65] 0 0
D 1.520000000 _3_ RTR  IFQ 6 cbr 1020 [0 0 0 0] ------- [3:0 0:2 30 0] [1] 0 0
s 1.520000000 _4_ AGT  --- 263 cbr 1000 [0 0 0 0] ------- [4:0 0:3 32 0] [65] 0 0
D 1.520000000 _4_ RTR  IFQ 7 cbr 1020 [0 0 0 0] ------- [4:0 0:3 30 0] [1] 0 0
s 1.528000000 _1_ AGT  --- 264 cbr 1000 [0 0 0 0] ------- [1:0 0:0 32 0] [66] 0 0
D 1.528000000 _1_ RTR  IFQ 8 cbr 1020 [0 0 0 0] ------- [1:0 0:0 30 0] [2] 0 0
s 1.528000000 _2_ AGT  --- 265 cbr 1000 [0 0 0 0] ------- [2:0 0:1 32 0] [66] 0 0
D 1.528000000 _2_ RTR  IFQ 9 cbr 1020 [0 0 0 0] ------- [2:0 0:1 30 0] [2] 0 0
s 1.528000000 _3_ AGT  --- 266 cbr 1000 [0 0 0 0] ------- [3:0 0:2 32 0] [66] 0 0
D 1.528000000 _3_ RTR  IFQ 10 cbr 1020 [0 0 0 0] ------- [3:0 0:2 30 0] [2] 0 0
s 1.528000000 _4_ AGT  --- 267 cbr 1000 [0 0 0 0] ------- [4:0 0:3 32 0] [66] 0 0
D 1.528000000 _4_ RTR  IFQ 11 cbr 1020 [0 0 0 0] ------- [4:0 0:3 30 0] [2] 0 0
s 1.536000000 _1_ AGT  --- 268 cbr 1000 [0 0 0 0] ------- [1:0 0:0 32 0] [67] 0 0
D 1.536000000 _1_ RTR  IFQ 12 cbr 1020 [0 0 0 0] ------- [1:0 0:0 30 0] [3] 0 0
s 1.536000000 _2_ AGT  --- 269 cbr 1000 [0 0 0 0] ------- [2:0 0:1 32 0] [67] 0 0
D 1.536000000 _2_ RTR  IFQ 13 cbr 1020 [0 0 0 0] ------- [2:0 0:1 30 0] [3] 0 0
s 1.536000000 _3_ AGT  --- 270 cbr 1000 [0 0 0 0] ------- [3:0 0:2 32 0] [67] 0 0
D 1.536000000 _3_ RTR  IFQ 14 cbr 1020 [0 0 0 0] ------- [3:0 0:2 30 0] [3] 0 0
s 1.536000000 _4_ AGT  --- 271 cbr 1000 [0 0 0 0] ------- [4:0 0:3 32 0] [67] 0 0
D 1.536000000 _4_ RTR  IFQ 15 cbr 1020 [0 0 0 0] ------- [4:0 0:3 30 0] [3] 0 0
s 1.544000000 _1_ AGT  --- 272 cbr 1000 [0 0 0 0] ------- [1:0 0:0 32 0] [68] 0 0
D 1.544000000 _1_ RTR  IFQ 16 cbr 1020 [0 0 0 0] ------- [1:0 0:0 30 0] [4] 0 0
s 1.544000000 _2_ AGT  --- 273 cbr 1000 [0 0 0 0] ------- [2:0 0:1 32 0] [68] 0 0
D 1.544000000 _2_ RTR  IFQ 17 cbr 1020 [0 0 0 0] ------- [2:0 0:1 30 0] [4] 0 0
s 1.544000000 _3_ AGT  --- 274 cbr 1000 [0 0 0 0] ------- [3:0 0:2 32 0] [68] 0 0
D 1.544000000 _3_ RTR  IFQ 18 cbr 1020 [0 0 0 0] ------- [3:0 0:2 30 0] [4] 0 0
s 1.544000000 _4_ AGT  --- 275 cbr 1000 [0 0 0 0] ------- [4:0 0:3 32 0] [68] 0 0
D 1.544000000 _4_ RTR  IFQ 19 cbr 1020 [0 0 0 0] ------- [4:0 0:3 30 0] [4] 0 0
s 1.552000000 _1_ AGT  --- 276 cbr 1000 [0 0 0 0] ------- [1:0 0:0 32 0] [69] 0 0
D 1.552000000 _1_ RTR  IFQ 20 cbr 1020 [0 0 0 0] ------- [1:0 0:0 30 0] [5] 0 0
s 1.552000000 _2_ AGT  --- 277 cbr 1000 [0 0 0 0] ------- [2:0 0:1 32 0] [69] 0 0
D 1.552000000 _2_ RTR  IFQ 21 cbr 1020 [0 0 0 0] ------- [2:0 0:1 30 0] [5] 0 0
s 1.552000000 _3_ AGT  --- 278 cbr 1000 [0 0 0 0] ------- [3:0 0:2 32 0] [69] 0 0
D 1.552000000 _3_ RTR  IFQ 22 cbr 1020 [0 0 0 0] ------- [3:0 0:2 30 0] [5] 0 0
s 1.552000000 _4_ AGT  --- 279 cbr 1000 [0 0 0 0] ------- [4:0 0:3 32 0] [69] 0 0
D 1.552000000 _4_ RTR  IFQ 23 cbr 1020 [0 0 0 0] ------- [4:0 0:3 30 0] [5] 0 0
s 1.560000000 _1_ AGT  --- 280 cbr 1000 [0 0 0 0] ------- [1:0 0:0 32 0] [70] 0 0
D 1.560000000 _1_ RTR  IFQ 24 cbr 1020 [0 0 0 0] ------- [1:0 0:0 30 0] [6] 0 0
s 1.560000000 _2_ AGT  --- 281 cbr 1000 [0 0 0 0] ------- [2:0 0:1 32 0] [70] 0 0
D 1.560000000 _2_ RTR  IFQ 25 cbr 1020 [0 0 0 0] ------- [2:0 0:1 30 0] [6] 0 0
s 1.560000000 _3_ AGT  --- 282 cbr 1000 [0 0 0 0] ------- [3:0 0:2 32 0] [70] 0 0
D 1.560000000 _3_ RTR  IFQ 26 cbr 1020 [0 0 0 0] ------- [3:0 0:2 30 0] [6] 0 0
s 1.560000000 _4_ AGT  --- 283 cbr 1000 [0 0 0 0] ------- [4:0 0:3 32 0] [70] 0 0
D 1.560000000 _4_ RTR  IFQ 27 cbr 1020 [0 0 0 0] ------- [4:0 0:3 30 0] [6] 0 0
s 1.568000000 _1_ AGT  --- 284 cbr 1000 [0 0 0 0] ------- [1:0 0:0 32 0] [71] 0 0
D 1.568000000 _1_ RTR  IFQ 28 cbr 1020 [0 0 0 0] ------- [1:0 0:0 30 0] [7] 0 0
s 1.568000000 _2_ AGT  --- 285 cbr 1000 [0 0 0 0] ------- [2:0 0:1 32 0] [71] 0 0
D 1.568000000 _2_ RTR  IFQ 29 cbr 1020 [0 0 0 0] ------- [2:0 0:1 30 0] [7] 0 0
s 1.568000000 _3_ AGT  --- 286 cbr 1000 [0 0 0 0] ------- [3:0 0:2 32 0] [71] 0 0
D 1.568000000 _3_ RTR  IFQ 30 cbr 1020 [0 0 0 0] ------- [3:0 0:2 30 0] [7] 0 0
s 1.568000000 _4_ AGT  --- 287 cbr 1000 [0 0 0 0] ------- [4:0 0:3 32 0] [71] 0 0
D 1.568000000 _4_ RTR  IFQ 31 cbr 1020 [0 0 0 0] ------- [4:0 0:3 30 0] [7] 0 0
s 1.576000000 _1_ AGT  --- 288 cbr 1000 [0 0 0 0] ------- [1:0 0:0 32 0] [72] 0 0
D 1.576000000 _1_ RTR  IFQ 32 cbr 1020 [0 0 0 0] ------- [1:0 0:0 30 0] [8] 0 0
s 1.576000000 _2_ AGT  --- 289 cbr 1000 [0 0 0 0] ------- [2:0 0:1 32 0] [72] 0 0
D 1.576000000 _2_ RTR  IFQ 33 cbr 1020 [0 0 0 0] ------- [2:0 0:1 30 0] [8] 0 0
s 1.576000000 _3_ AGT  --- 290 cbr 1000 [0 0 0 0] ------- [3:0 0:2 32 0] [72] 0 0
D 1.576000000 _3_ RTR  IFQ 34 cbr 1020 [0 0 0 0] ------- [3:0 0:2 30 0] [8] 0 0
s 1.576000000 _4_ AGT  --- 291 cbr 1000 [0 0 0 0] ------- [4:0 0:3 32 0] [72] 0 0
D 1.576000000 _4_ RTR  IFQ 35 cbr 1020 [0 0 0 0] ------- [4:0 0:3 30 0] [8] 0 0
s 1.584000000 _1_ AGT  --- 292 cbr 1000 [0 0 0 0] ------- [1:0 0:0 32 0] [73] 0 0
D 1.584000000 _1_ RTR  IFQ 36 cbr 1020 [0 0 0 0] ------- [1:0 0:0 30 0] [9] 0 0
s 1.584000000 _2_ AGT  --- 293 cbr 1000 [0 0 0 0] ------- [2:0 0:1 32 0] [73] 0 0
D 1.584000000 _2_ RTR  IFQ 37 cbr 1020 [0 0 0 0] ------- [2:0 0:1 30 0] [9] 0 0
s 1.584000000 _3_ AGT  --- 294 cbr 1000 [0 0 0 0] ------- [3:0 0:2 32 0] [73] 0 0
D 1.584000000 _3_ RTR  IFQ 38 cbr 1020 [0 0 0 0] ------- [3:0 0:2 30 0] [9] 0 0
s 1.584000000 _4_ AGT  --- 295 cbr 1000 [0 0 0 0] ------- [4:0 0:3 32 0] [73] 0 0
D 1.584000000 _4_ RTR  IFQ 39 cbr 1020 [0 0 0 0] ------- [4:0 0:3 30 0] [9] 0 0
s 1.592000000 _1_ AGT  --- 296 cbr 1000 [0 0 0 0] ------- [1:0 0:0 32 0] [74] 0 0
D 1.592000000 _1_ RTR  IFQ 40 cbr 1020 [0 0 0 0] ------- [1:0 0:0 30 0] [10] 0 0
s 1.592000000 _2_ AGT  --- 297 cbr 1000 [0 0 0 0] ------- [2:0 0:1 32 0] [74] 0 0
D 1.592000000 _2_ RTR  IFQ 41 cbr 1020 [0 0 0 0] ------- [2:0 0:1 30 0] [10] 0 0
s 1.592000000 _3_ AGT  --- 298 cbr 1000 [0 0 0 0] ------- [3:0 0:2 32 0] [74] 0 0
D 1.592000000 _3_ RTR  IFQ 42 cbr 1020 [0 0 0 0] ------- [3:0 0:2 30 0] [10] 0 0
s 1.592000000 _4_ AGT  --- 299 cbr 1000 [0 0 0 0] ------- [4:0 0:3 32 0] [74] 0 0
D 1.592000000 _4_ RTR  IFQ 43 cbr 1020 [0 0 0 0] ------- [4:0 0:3 30 0] [10] 0 0
s 1.600000000 _1_ AGT  --- 300 cbr 1000 [0 0 0 0] ------- [1:0 0:0 32 0] [75] 0 0
D 1.600000000 _1_ RTR  IFQ 44 cbr 1020 [0 0 0 0] ------- [1:0 0:0 30 0] [11] 0 0
s 1.600000000 _2_ AGT  --- 301 cbr 1000 [0 0 0 0] ------- [2:0 0:1 32 0] [75] 0 0
D 1.600000000 _2_ RTR  IFQ 45 cbr 1020 [0 0 0 0] ------- [2:0 0:1 30 0] [11] 0 0
s 1.600000000 _3_ AGT  --- 302 cbr 1000 [0 0 0 0] ------- [3:0 0:2 32 0] [75] 0 0
D 1.600000000 _3_ RTR  IFQ 46 cbr 1020 [0 0 0 0] ------- [3:0 0:2 30 0] [11] 0 0
s 1.600000000 _4_ AGT  --- 303 cbr 1000 [0 0 0 0] ------- [4:0 0:3 32 0] [75] 0 0
D 1.600000000 _4_ RTR  IFQ 47 cbr 1020 [0 0 0 0] ------- [4:0 0:3 30 0] [11] 0 0
s 1.608000000 _1_ AGT  --- 304 cbr 1000 [0 0 0 0] ------- [1:0 0:0 32 0] [76] 0 0
D 1.608000000 _1_ RTR  IFQ 48 cbr 1020 [0 0 0 0] ------- [1:0 0:0 30 0] [12] 0 0
s 1.608000000 _2_ AGT  --- 305 cbr 1000 [0 0 0 0] ------- [2:0 0:1 32 0] [76] 0 0
D 1.608000000 _2_ RTR  IFQ 49 cbr 1020 [0 0 0 0] ------- [2:0 0:1 30 0] [12] 0 0
s 1.608000000 _3_ AGT  --- 306 cbr 1000 [0 0 0 0] ------- [3:0 0:2 32 0] [76] 0 0
D 1.608000000 _3_ RTR  IFQ 50 cbr 1020 [0 0 0 0] ------- [3:0 0:2 30 0] [12] 0 0
s 1.608000000 _4_ AGT  --- 307 cbr 1000 [0 0 0 0] ------- [4:0 0:3 32 0] [76] 0 0
D 1.608000000 _4_ RTR  IFQ 51 cbr 1020 [0 0 0 0] ------- [4:0 0:3 30 0] [12] 0 0
s 1.616000000 _1_ AGT  --- 308 cbr 1000 [0 0 0 0] ------- [1:0 0:0 32 0] [77] 0 0
D 1.616000000 _1_ RTR  IFQ 52 cbr 1020 [0 0 0 0] ------- [1:0 0:0 30 0] [13] 0 0