M 0.00000 1 (1343.77, 681.65, 0.00), (1343.77, 681.65), 50.00
M 0.00000 2 (1006.42, 971.37, 0.00), (1006.42, 971.37), 50.00
M 0.00000 3 (1305.33, 1150.57, 0.00), (1305.33, 1150.57), 50.00
M 0.00000 4 (1170.60, 195.65, 0.00), (1170.60, 195.65), 50.00
s 1.000000000 _1_ AGT  --- 0 tcp 40 [0 0 0 0] ------- [1:0 0:0 32 0] [0 0] 0 0
s 1.000000000 _2_ AGT  --- 1 tcp 40 [0 0 0 0] ------- [2:0 0:1 32 0] [0 0] 0 0
s 1.000000000 _3_ AGT  --- 2 tcp 40 [0 0 0 0] ------- [3:0 0:2 32 0] [0 0] 0 0
s 1.000000000 _4_ AGT  --- 3 tcp 40 [0 0 0 0] ------- [4:0 0:3 32 0] [0 0] 0 0
M 1.00000 1 (276.95, 186.33, 0.00), (276.95, 186.33), 50.00
M 1.00000 2 (1231.02, 244.68, 0.00), (1231.02, 244.68), 50.00
M 1.00000 3 (880.31, 834.73, 0.00), (880.31, 834.73), 50.00
M 1.00000 4 (1240.10, 1284.37, 0.00), (1240.10, 1284.37), 50.00
M 2.00000 1 (1443.59, 1377.06, 0.00), (1443.59, 1377.06), 50.00
M 2.00000 2 (734.02, 703.43, 0.00), (734.02, 703.43), 50.00
M 2.00000 3 (976.05, 504.97, 0.00), (976.05, 504.97), 50.00
M 2.00000 4 (81.42, 375.81, 0.00), (81.42, 375.81), 50.00
M 3.00000 1 (1203.18, 384.50, 0.00), (1203.18, 384.50), 50.00
M 3.00000 2 (233.17, 919.42, 0.00), (233.17, 919.42), 50.00
M 3.00000 3 (1214.69, 286.37, 0.00), (1214.69, 286.37), 50.00
M 3.00000 4 (992.52, 1231.22, 0.00), (992.52, 1231.22), 50.00
s 4.000000000 _1_ AGT  --- 4 tcp 40 [0 0 0 0] ------- [1:0 0:0 32 0] [0 0] 0 0
s 4.000000000 _2_ AGT  --- 5 tcp 40 [0 0 0 0] ------- [2:0 0:1 32 0] [0 0] 0 0
s 4.000000000 _3_ AGT  --- 6 tcp 40 [0 0 0 0] ------- [3:0 0:2 32 0] [0 0] 0 0
s 4.000000000 _4_ AGT  --- 7 tcp 40 [0 0 0 0] ------- [4:0 0:3 32 0] [0 0] 0 0
M 4.00000 1 (555.23, 167.39, 0.00), (555.23, 167.39), 50.00
M 4.00000 2 (752.61, 1057.92, 0.00), (752.61, 1057.92), 50.00
M 4.00000 3 (1026.65, 350.97, 0.00), (1026.65, 350.97), 50.00
M 4.00000 4 (679.15, 990.96, 0.00), (679.15, 990.96), 50.00
M 5.00000 1 (564.15, 169.00, 0.00), (564.15, 169.00), 50.00
M 5.00000 2 (808.50, 1427.68, 0.00), (808.50, 1427.68), 50.00
M 5.00000 3 (970.77, 154.08, 0.00), (970.77, 154.08), 50.00
M 5.00000 4 (575.93, 120.40, 0.00), (575.93, 120.40), 50.00
M 6.00000 1 (102.16, 1035.91, 0.00), (102.16, 1035.91), 50.00
M 6.00000 2 (31.51, 158.72, 0.00), (31.51, 158.72), 50.00
M 6.00000 3 (672.18, 882.39, 0.00), (672.18, 882.39), 50.00
M 6.00000 4 (1403.85, 994.22, 0.00), (1403.85, 994.22), 50.00
M 7.00000 1 (1383.36, 109.17, 0.00), (1383.36, 109.17), 50.00
M 7.00000 2 (361.81, 1419.32, 0.00), (361.81, 1419.32), 50.00
M 7.00000 3 (94.91, 633.81, 0.00), (94.91, 633.81), 50.00
M 7.00000 4 (1014.81, 935.99, 0.00), (1014.81, 935.99), 50.00
M 8.00000 1 (650.32, 888.87, 0.00), (650.32, 888.87), 50.00
M 8.00000 2 (687.13, 161.23, 0.00), (687.13, 161.23), 50.00
M 8.00000 3 (785.66, 103.10, 0.00), (785.66, 103.10), 50.00
M 8.00000 4 (363.43, 241.22, 0.00), (363.43, 241.22), 50.00
M 9.00000 1 (1236.77, 969.43, 0.00), (1236.77, 969.43), 50.00
M 9.00000 2 (147.93, 792.01, 0.00), (147.93, 792.01), 50.00
M 9.00000 3 (374.06, 402.82, 0.00), (374.06, 402.82), 50.00
M 9.00000 4 (647.48, 1150.14, 0.00), (647.48, 1150.14), 50.00
s 10.000000000 _1_ AGT  --- 8 tcp 40 [0 0 0 0] ------- [1:0 0:0 32 0] [0 0] 0 0
s 10.000000000 _2_ AGT  --- 9 tcp 40 [0 0 0 0] ------- [2:0 0:1 32 0] [0 0] 0 0
s 10.000000000 _3_ AGT  --- 10 tcp 40 [0 0 0 0] ------- [3:0 0:2 32 0] [0 0] 0 0
s 10.000000000 _4_ AGT  --- 11 tcp 40 [0 0 0 0] ------- [4:0 0:3 32 0] [0 0] 0 0
M 10.00000 1 (1326.20, 964.88, 0.00), (1326.20, 964.88), 50.00
M 10.00000 2 (275.11, 834.81, 0.00), (275.11, 834.81), 50.00
M 10.00000 3 (1164.77, 1331.41, 0.00), (1164.77, 1331.41), 50.00
M 10.00000 4 (1436.22, 483.15, 0.00), (1436.22, 483.15), 50.00
M 11.00000 1 (784.47, 1048.39, 0.00), (784.47, 1048.39), 50.00
M 11.00000 2 (1266.29, 483.14, 0.00), (1266.29, 483.14), 50.00
M 11.00000 3 (642.30, 1164.47, 0.00), (642.30, 1164.47), 50.00
M 11.00000 4 (695.61, 103.49, 0.00), (695.61, 103.49), 50.00
M 12.00000 1 (925.43, 270.85, 0.00), (925.43, 270.85), 50.00
M 12.00000 2 (1130.16, 25.91, 0.00), (1130.16, 25.91), 50.00
M 12.00000 3 (506.22, 74.39, 0.00), (506.22, 74.39), 50.00
M 12.00000 4 (814.92, 1327.51, 0.00), (814.92, 1327.51), 50.00
M 13.00000 1 (520.71, 572.00, 0.00), (520.71, 572.00), 50.00
M 13.00000 2 (184.32, 323.50, 0.00), (184.32, 323.50), 50.00
M 13.00000 3 (1092.15, 234.45, 0.00), (1092.15, 234.45), 50.00
M 13.00000 4 (1439.02, 1134.26, 0.00), (1439.02, 1134.26), 50.00
M 14.00000 1 (1459.42, 508.13, 0.00), (1459.42, 508.13), 50.00
M 14.00000 2 (678.30, 255.33, 0.00), (678.30, 255.33), 50.00
M 14.00000 3 (1337.86, 346.89, 0.00), (1337.86, 346.89), 50.00
M 14.00000 4 (1136.06, 317.38, 0.00), (1136.06, 317.38), 50.00
M 15.00000 1 (209.54, 1219.74, 0.00), (209.54, 1219.74), 50.00
M 15.00000 2 (1158.18, 1489.99, 0.00), (1158.18, 1489.99), 50.00
M 15.00000 3 (1250.91, 26.85, 0.00), (1250.91, 26.85), 50.00
M 15.00000 4 (1230.74, 115.27, 0.00), (1230.74, 115.27), 50.00
M 16.00000 1 (871.32, 1330.37, 0.00), (871.32, 1330.37), 50.00
M 16.00000 2 (536.64, 1238.32, 0.00), (536.64, 1238.32), 50.00
M 16.00000 3 (1409.97, 304.42, 0.00), (1409.97, 304.42), 50.00
M 16.00000 4 (1410.46, 1029.58, 0.00), (1410.46, 1029.58), 50.00
M 17.00000 1 (75.06, 1465.36, 0.00), (75.06, 1465.36), 50.00
M 17.00000 2 (1265.80, 1324.58, 0.00), (1265.80, 1324.58), 50.00
M 17.00000 3 (798.51, 52.17, 0.00), (798.51, 52.17), 50.00
M 17.00000 4 (888.16, 827.07, 0.00), (888.16, 827.07), 50.00
M 18.00000 1 (125.92, 1369.42, 0.00), (125.92, 1369.42), 50.00
M 18.00000 2 (1339.81, 223.78, 0.00), (1339.81, 223.78), 50.00
M 18.00000 3 (537.66, 442.97, 0.00), (537.66, 442.97), 50.00
M 18.00000 4 (574.65, 1072.77, 0.00), (574.65, 1072.77), 50.00
M 19.00000 1 (14.24, 784.59, 0.00), (14.24, 784.59), 50.00
M 19.00000 2 (131.13, 339.39, 0.00), (131.13, 339.39), 50.00
M 19.00000 3 (1160.27, 698.11, 0.00), (1160.27, 698.11), 50.00
M 19.00000 4 (116.15, 676.36, 0.00), (116.15, 676.36), 50.00
D 20.000000000 _1_ RTR NRTE 0 tcp 40 [0 0 0 0] ------- [1:0 0:0 30 0] [0 0] 0 0
D 20.000000000 _1_ RTR NRTE 4 tcp 40 [0 0 0 0] ------- [1:0 0:0 30 0] [0 0] 0 0
D 20.000000000 _1_ RTR NRTE 8 tcp 40 [0 0 0 0] ------- [1:0 0:0 30 0] [0 0] 0 0
D 20.000000000 _2_ RTR NRTE 1 tcp 40 [0 0 0 0] ------- [2:0 0:1 30 0] [0 0] 0 0
D 20.000000000 _2_ RTR NRTE 5 tcp 40 [0 0 0 0] ------- [2:0 0:1 30 0] [0 0] 0 0
D 20.000000000 _2_ RTR NRTE 9 tcp 40 [0 0 0 0] ------- [2:0 0:1 30 0] [0 0] 0 0
D 20.000000000 _3_ RTR NRTE 2 tcp 40 [0 0 0 0] ------- [3:0 0:2 30 0] [0 0] 0 0
D 20.000000000 _3_ RTR NRTE 6 tcp 40 [0 0 0 0] ------- [3:0 0:2 30 0] [0 0] 0 0
D 20.000000000 _3_ RTR NRTE 10 tcp 40 [0 0 0 0] ------- [3:0 0:2 30 0] [0 0] 0 0
D 20.000000000 _4_ RTR NRTE 3 tcp 40 [0 0 0 0] ------- [4:0 0:3 30 0] [0 0] 0 0
D 20.000000000 _4_ RTR NRTE 7 tcp 40 [0 0 0 0] ------- [4:0 0:3 30 0] [0 0] 0 0
D 20.000000000 _4_ RTR NRTE 11 tcp 40 [0 0 0 0] ------- [4:0 0:3 30 0] [0 0] 0 0
M 20.00000 1 (522.67, 546.16, 0.00), (522.67, 546.16), 50.00
M 20.00000 2 (771.78, 734.24, 0.00), (771.78, 734.24), 50.00
M 20.00000 3 (1331.77, 52.32, 0.00), (1331.77, 52.32), 50.00
M 20.00000 4 (410.37, 75.83, 0.00), (410.37, 75.83), 50.00
M 21.00000 1 (930.91, 776.76, 0.00), (930.91, 776.76), 50.00
M 21.00000 2 (503.80, 1310.24, 0.00), (503.80, 1310.24), 50.00
M 21.00000 3 (1129.65, 514.71, 0.00), (1129.65, 514.71), 50.00
M 21.00000 4 (267.00, 1019.69, 0.00), (267.00, 1019.69), 50.00
s 22.000000000 _1_ AGT  --- 12 tcp 40 [0 0 0 0] ------- [1:0 0:0 32 0] [0 0] 0 0
s 22.000000000 _2_ AGT  --- 13 tcp 40 [0 0 0 0] ------- [2:0 0:1 32 0] [0 0] 0 0
s 22.000000000 _3_ AGT  --- 14 tcp 40 [0 0 0 0] ------- [3:0 0:2 32 0] [0 0] 0 0
s 22.000000000 _4_ AGT  --- 15 tcp 40 [0 0 0 0] ------- [4:0 0:3 32 0] [0 0] 0 0
M 22.00000 1 (420.50, 858.53, 0.00), (420.50, 858.53), 50.00
M 22.00000 2 (748.70, 1410.74, 0.00), (748.70, 1410.74), 50.00
M 22.00000 3 (1268.13, 1444.27, 0.00), (1268.13, 1444.27), 50.00
M 22.00000 4 (763.73, 574.68, 0.00), (763.73, 574.68), 50.00
M 23.00000 1 (76.15, 327.46, 0.00), (76.15, 327.46), 50.00
M 23.00000 2 (185.51, 819.64, 0.00), (185.51, 819.64), 50.00
M 23.00000 3 (1128.95, 786.70, 0.00), (1128.95, 786.70), 50.00
M 23.00000 4 (1037.26, 176.44, 0.00), (1037.26, 176.44), 50.00
M 24.00000 1 (2.24, 67.70, 0.00), (2.24, 67.70), 50.00
M 24.00000 2 (824.53, 853.70, 0.00), (824.53, 853.70), 50.00
M 24.00000 3 (678.85, 458.06, 0.00), (678.85, 458.06), 50.00
M 24.00000 4 (624.50, 432.25, 0.00), (624.50, 432.25), 50.00
M 25.00000 1 (397.49, 1066.70, 0.00), (397.49, 1066.70), 50.00
M 25.00000 2 (1496.29, 696.25, 0.00), (1496.29, 696.25), 50.00
M 25.00000 3 (381.88, 1320.35, 0.00), (381.88, 1320.35), 50.00
M 25.00000 4 (108.92, 546.69, 0.00), (108.92, 546.69), 50.00
M 26.00000 1 (704.84, 689.08, 0.00), (704.84, 689.08), 50.00
M 26.00000 2 (1402.35, 1335.48, 0.00), (1402.35, 1335.48), 50.00
M 26.00000 3 (865.37, 295.38, 0.00), (865.37, 295.38), 50.00
M 26.00000 4 (914.60, 1198.35, 0.00), (914.60, 1198.35), 50.00
M 27.00000 1 (157.55, 422.47, 0.00), (157.55, 422.47), 50.00
M 27.00000 2 (1010.16, 718.58, 0.00), (1010.16, 718.58), 50.00
M 27.00000 3 (683.37, 1316.79, 0.00), (683.37, 1316.79), 50.00
M 27.00000 4 (324.78, 72.55, 0.00), (324.78, 72.55), 50.00
M 28.00000 1 (1347.01, 1162.82, 0.00), (1347.01, 1162.82), 50.00
M 28.00000 2 (0.69, 1041.80, 0.00), (0.69, 1041.80), 50.00
M 28.00000 3 (51.15, 225.81, 0.00), (51.15, 225.81), 50.00
M 28.00000 4 (255.68, 1159.95, 0.00), (255.68, 1159.95), 50.00
M 29.00000 1 (1228.25, 224.48, 0.00), (1228.25, 224.48), 50.00
M 29.00000 2 (361.07, 986.82, 0.00), (361.07, 986.82), 50.00
M 29.00000 3 (1491.16, 1477.49, 0.00), (1491.16, 1477.49), 50.00
M 29.00000 4 (1204.92, 1102.29, 0.00), (1204.92, 1102.29), 50.00
