n -t * -s 0  -x 1000 -y 1000 -Z 0 -z 50  -v circle -c black
n -t * -s 1  -x 0 -y 0 -Z 0 -z 20  -v circle -c black
n -t * -s 2  -x 0 -y 0 -Z 0 -z 20  -v circle -c black
n -t * -s 3  -x 0 -y 0 -Z 0 -z 20  -v circle -c black
n -t * -s 4  -x 0 -y 0 -Z 0 -z 20  -v circle -c black
V -t * -v 1.0a5 -a 0
W -t * -x 2000 -y 2000
A -t * -n 1 -p 0 -o 0x7fffffff -c 30 -a 1
A -t * -h 1 -m 1073741823 -s 0
n -t 0 -s 0 -S DLABEL -l "Cell-Tower" -L ""
n -t 0 -s 1 -S DLABEL -l "Mobile-(1)" -L ""
n -t 0 -s 1 -S COLOR -c blue -o blue -i blue -I blue
n -t 0 -s 2 -S DLABEL -l "Mobile-(2)" -L ""
n -t 0 -s 2 -S COLOR -c blue -o blue -i blue -I blue
n -t 0 -s 3 -S DLABEL -l "Mobile-(3)" -L ""
n -t 0 -s 3 -S COLOR -c blue -o blue -i blue -I blue
n -t 0 -s 4 -S DLABEL -l "Mobile-(4)" -L ""
n -t 0 -s 4 -S COLOR -c blue -o blue -i blue -I blue
n -t 0.000000 -s 1 -x 1343.766386 -y 681.650885 -U 0.000000 -V 0.000000 -T 0.000000
n -t 0.000000 -s 2 -x 1006.424190 -y 971.369389 -U 0.000000 -V 0.000000 -T 0.000000
n -t 0.000000 -s 3 -x 1305.328171 -y 1150.572416 -U 0.000000 -V 0.000000 -T 0.000000
n -t 0.000000 -s 4 -x 1170.595326 -y 195.649250 -U 0.000000 -V 0.000000 -T 0.000000
+ -t 1.000000000 -s 1 -d -1 -p tcp -e 40 -c 2 -a 0 -i 0 -k AGT 
- -t 1.000000000 -s 1 -d -1 -p tcp -e 40 -c 2 -a 0 -i 0 -k AGT
h -t 1.000000000 -s 1 -d -1 -p tcp -e 40 -c 2 -a 0 -i 0 -k AGT
+ -t 1.000000000 -s 2 -d -1 -p tcp -e 40 -c 2 -a 0 -i 1 -k AGT 
- -t 1.000000000 -s 2 -d -1 -p tcp -e 40 -c 2 -a 0 -i 1 -k AGT
h -t 1.000000000 -s 2 -d -1 -p tcp -e 40 -c 2 -a 0 -i 1 -k AGT
+ -t 1.000000000 -s 3 -d -1 -p tcp -e 40 -c 2 -a 0 -i 2 -k AGT 
- -t 1.000000000 -s 3 -d -1 -p tcp -e 40 -c 2 -a 0 -i 2 -k AGT
h -t 1.000000000 -s 3 -d -1 -p tcp -e 40 -c 2 -a 0 -i 2 -k AGT
+ -t 1.000000000 -s 4 -d -1 -p tcp -e 40 -c 2 -a 0 -i 3 -k AGT 
- -t 1.000000000 -s 4 -d -1 -p tcp -e 40 -c 2 -a 0 -i 3 -k AGT
h -t 1.000000000 -s 4 -d -1 -p tcp -e 40 -c 2 -a 0 -i 3 -k AGT
n -t 1.000000 -s 1 -x 276.949267 -y 186.334921 -U 0.000000 -V 0.000000 -T 0.000000
n -t 1.000000 -s 2 -x 1231.019497 -y 244.682591 -U 0.000000 -V 0.000000 -T 0.000000
n -t 1.000000 -s 3 -x 880.307891 -y 834.726013 -U 0.000000 -V 0.000000 -T 0.000000
n -t 1.000000 -s 4 -x 1240.095459 -y 1284.372201 -U 0.000000 -V 0.000000 -T 0.000000
n -t 2.000000 -s 1 -x 1443.587616 -y 1377.059203 -U 0.000000 -V 0.000000 -T 0.000000
n -t 2.000000 -s 2 -x 734.021742 -y 703.425719 -U 0.000000 -V 0.000000 -T 0.000000
n -t 2.000000 -s 3 -x 976.051941 -y 504.973012 -U 0.000000 -V 0.000000 -T 0.000000
n -t 2.000000 -s 4 -x 81.417017 -y 375.807889 -U 0.000000 -V 0.000000 -T 0.000000
n -t 3.000000 -s 1 -x 1203.182275 -y 384.496530 -U 0.000000 -V 0.000000 -T 0.000000
n -t 3.000000 -s 2 -x 233.171858 -y 919.421354 -U 0.000000 -V 0.000000 -T 0.000000
n -t 3.000000 -s 3 -x 1214.689497 -y 286.368330 -U 0.000000 -V 0.000000 -T 0.000000
n -t 3.000000 -s 4 -x 992.516881 -y 1231.216471 -U 0.000000 -V 0.000000 -T 0.000000
+ -t 4.000000000 -s 1 -d -1 -p tcp -e 40 -c 2 -a 0 -i 4 -k AGT 
- -t 4.000000000 -s 1 -d -1 -p tcp -e 40 -c 2 -a 0 -i 4 -k AGT
h -t 4.000000000 -s 1 -d -1 -p tcp -e 40 -c 2 -a 0 -i 4 -k AGT
+ -t 4.000000000 -s 2 -d -1 -p tcp -e 40 -c 2 -a 0 -i 5 -k AGT 
- -t 4.000000000 -s 2 -d -1 -p tcp -e 40 -c 2 -a 0 -i 5 -k AGT
h -t 4.000000000 -s 2 -d -1 -p tcp -e 40 -c 2 -a 0 -i 5 -k AGT
+ -t 4.000000000 -s 3 -d -1 -p tcp -e 40 -c 2 -a 0 -i 6 -k AGT 
- -t 4.000000000 -s 3 -d -1 -p tcp -e 40 -c 2 -a 0 -i 6 -k AGT
h -t 4.000000000 -s 3 -d -1 -p tcp -e 40 -c 2 -a 0 -i 6 -k AGT
+ -t 4.000000000 -s 4 -d -1 -p tcp -e 40 -c 2 -a 0 -i 7 -k AGT 
- -t 4.000000000 -s 4 -d -1 -p tcp -e 40 -c 2 -a 0 -i 7 -k AGT
h -t 4.000000000 -s 4 -d -1 -p tcp -e 40 -c 2 -a 0 -i 7 -k AGT
n -t 4.000000 -s 1 -x 555.225048 -y 167.385768 -U 0.000000 -V 0.000000 -T 0.000000
n -t 4.000000 -s 2 -x 752.606528 -y 1057.923880 -U 0.000000 -V 0.000000 -T 0.000000
n -t 4.000000 -s 3 -x 1026.646693 -y 350.965619 -U 0.000000 -V 0.000000 -T 0.000000
n -t 4.000000 -s 4 -x 679.151006 -y 990.959966 -U 0.000000 -V 0.000000 -T 0.000000
n -t 5.000000 -s 1 -x 564.149997 -y 168.995567 -U 0.000000 -V 0.000000 -T 0.000000
n -t 5.000000 -s 2 -x 808.498107 -y 1427.677204 -U 0.000000 -V 0.000000 -T 0.000000
n -t 5.000000 -s 3 -x 970.765400 -y 154.077225 -U 0.000000 -V 0.000000 -T 0.000000
n -t 5.000000 -s 4 -x 575.927911 -y 120.402342 -U 0.000000 -V 0.000000 -T 0.000000
n -t 6.000000 -s 1 -x 102.161951 -y 1035.909533 -U 0.000000 -V 0.000000 -T 0.000000
n -t 6.000000 -s 2 -x 31.514174 -y 158.723876 -U 0.000000 -V 0.000000 -T 0.000000
n -t 6.000000 -s 3 -x 672.183161 -y 882.394470 -U 0.000000 -V 0.000000 -T 0.000000
n -t 6.000000 -s 4 -x 1403.849243 -y 994.221655 -U 0.000000 -V 0.000000 -T 0.000000
n -t 7.000000 -s 1 -x 1383.358670 -y 109.172476 -U 0.000000 -V 0.000000 -T 0.000000
n -t 7.000000 -s 2 -x 361.808730 -y 1419.324978 -U 0.000000 -V 0.000000 -T 0.000000
n -t 7.000000 -s 3 -x 94.908896 -y 633.814173 -U 0.000000 -V 0.000000 -T 0.000000
n -t 7.000000 -s 4 -x 1014.811447 -y 935.988000 -U 0.000000 -V 0.000000 -T 0.000000
n -t 8.000000 -s 1 -x 650.317657 -y 888.866968 -U 0.000000 -V 0.000000 -T 0.000000
n -t 8.000000 -s 2 -x 687.134005 -y 161.229587 -U 0.000000 -V 0.000000 -T 0.000000
n -t 8.000000 -s 3 -x 785.660921 -y 103.103673 -U 0.000000 -V 0.000000 -T 0.000000
n -t 8.000000 -s 4 -x 363.434356 -y 241.223108 -U 0.000000 -V 0.000000 -T 0.000000
n -t 9.000000 -s 1 -x 1236.774524 -y 969.426306 -U 0.000000 -V 0.000000 -T 0.000000
n -t 9.000000 -s 2 -x 147.931934 -y 792.013689 -U 0.000000 -V 0.000000 -T 0.000000
n -t 9.000000 -s 3 -x 374.064546 -y 402.817128 -U 0.000000 -V 0.000000 -T 0.000000
n -t 9.000000 -s 4 -x 647.477250 -y 1150.135432 -U 0.000000 -V 0.000000 -T 0.000000
+ -t 10.000000000 -s 1 -d -1 -p tcp -e 40 -c 2 -a 0 -i 8 -k AGT 
- -t 10.000000000 -s 1 -d -1 -p tcp -e 40 -c 2 -a 0 -i 8 -k AGT
h -t 10.000000000 -s 1 -d -1 -p tcp -e 40 -c 2 -a 0 -i 8 -k AGT
+ -t 10.000000000 -s 2 -d -1 -p tcp -e 40 -c 2 -a 0 -i 9 -k AGT 
- -t 10.000000000 -s 2 -d -1 -p tcp -e 40 -c 2 -a 0 -i 9 -k AGT
h -t 10.000000000 -s 2 -d -1 -p tcp -e 40 -c 2 -a 0 -i 9 -k AGT
+ -t 10.000000000 -s 3 -d -1 -p tcp -e 40 -c 2 -a 0 -i 10 -k AGT 
- -t 10.000000000 -s 3 -d -1 -p tcp -e 40 -c 2 -a 0 -i 10 -k AGT
h -t 10.000000000 -s 3 -d -1 -p tcp -e 40 -c 2 -a 0 -i 10 -k AGT
+ -t 10.000000000 -s 4 -d -1 -p tcp -e 40 -c 2 -a 0 -i 11 -k AGT 
- -t 10.000000000 -s 4 -d -1 -p tcp -e 40 -c 2 -a 0 -i 11 -k AGT
h -t 10.000000000 -s 4 -d -1 -p tcp -e 40 -c 2 -a 0 -i 11 -k AGT
n -t 10.000000 -s 1 -x 1326.201278 -y 964.882199 -U 0.000000 -V 0.000000 -T 0.000000
n -t 10.000000 -s 2 -x 275.113632 -y 834.810780 -U 0.000000 -V 0.000000 -T 0.000000
n -t 10.000000 -s 3 -x 1164.772500 -y 1331.405737 -U 0.000000 -V 0.000000 -T 0.000000
n -t 10.000000 -s 4 -x 1436.216050 -y 483.148954 -U 0.000000 -V 0.000000 -T 0.000000
n -t 11.000000 -s 1 -x 784.467685 -y 1048.388546 -U 0.000000 -V 0.000000 -T 0.000000
n -t 11.000000 -s 2 -x 1266.286853 -y 483.140495 -U 0.000000 -V 0.000000 -T 0.000000
n -t 11.000000 -s 3 -x 642.301688 -y 1164.466925 -U 0.000000 -V 0.000000 -T 0.000000
n -t 11.000000 -s 4 -x 695.609180 -y 103.494106 -U 0.000000 -V 0.000000 -T 0.000000
n -t 12.000000 -s 1 -x 925.434096 -y 270.847275 -U 0.000000 -V 0.000000 -T 0.000000
n -t 12.000000 -s 2 -x 1130.155644 -y 25.912193 -U 0.000000 -V 0.000000 -T 0.000000
n -t 12.000000 -s 3 -x 506.222074 -y 74.392510 -U 0.000000 -V 0.000000 -T 0.000000
n -t 12.000000 -s 4 -x 814.918041 -y 1327.513578 -U 0.000000 -V 0.000000 -T 0.000000
n -t 13.000000 -s 1 -x 520.709943 -y 572.004779 -U 0.000000 -V 0.000000 -T 0.000000
n -t 13.000000 -s 2 -x 184.317457 -y 323.501645 -U 0.000000 -V 0.000000 -T 0.000000
n -t 13.000000 -s 3 -x 1092.148179 -y 234.452253 -U 0.000000 -V 0.000000 -T 0.000000
n -t 13.000000 -s 4 -x 1439.021494 -y 1134.257120 -U 0.000000 -V 0.000000 -T 0.000000
n -t 14.000000 -s 1 -x 1459.422153 -y 508.132225 -U 0.000000 -V 0.000000 -T 0.000000
n -t 14.000000 -s 2 -x 678.304000 -y 255.330389 -U 0.000000 -V 0.000000 -T 0.000000
n -t 14.000000 -s 3 -x 1337.856065 -y 346.887372 -U 0.000000 -V 0.000000 -T 0.000000
n -t 14.000000 -s 4 -x 1136.063389 -y 317.380231 -U 0.000000 -V 0.000000 -T 0.000000
n -t 15.000000 -s 1 -x 209.538867 -y 1219.739286 -U 0.000000 -V 0.000000 -T 0.000000
n -t 15.000000 -s 2 -x 1158.177544 -y 1489.989344 -U 0.000000 -V 0.000000 -T 0.000000
n -t 15.000000 -s 3 -x 1250.908957 -y 26.847786 -U 0.000000 -V 0.000000 -T 0.000000
n -t 15.000000 -s 4 -x 1230.744051 -y 115.271692 -U 0.000000 -V 0.000000 -T 0.000000
n -t 16.000000 -s 1 -x 871.323280 -y 1330.370479 -U 0.000000 -V 0.000000 -T 0.000000
n -t 16.000000 -s 2 -x 536.635825 -y 1238.317961 -U 0.000000 -V 0.000000 -T 0.000000
n -t 16.000000 -s 3 -x 1409.966349 -y 304.421399 -U 0.000000 -V 0.000000 -T 0.000000
n -t 16.000000 -s 4 -x 1410.455737 -y 1029.575478 -U 0.000000 -V 0.000000 -T 0.000000
n -t 17.000000 -s 1 -x 75.055950 -y 1465.357637 -U 0.000000 -V 0.000000 -T 0.000000
n -t 17.000000 -s 2 -x 1265.801427 -y 1324.584906 -U 0.000000 -V 0.000000 -T 0.000000
n -t 17.000000 -s 3 -x 798.509679 -y 52.173985 -U 0.000000 -V 0.000000 -T 0.000000
n -t 17.000000 -s 4 -x 888.161306 -y 827.073596 -U 0.000000 -V 0.000000 -T 0.000000
n -t 18.000000 -s 1 -x 125.921903 -y 1369.419873 -U 0.000000 -V 0.000000 -T 0.000000
n -t 18.000000 -s 2 -x 1339.812208 -y 223.778048 -U 0.000000 -V 0.000000 -T 0.000000
n -t 18.000000 -s 3 -x 537.659486 -y 442.974632 -U 0.000000 -V 0.000000 -T 0.000000
n -t 18.000000 -s 4 -x 574.645848 -y 1072.768146 -U 0.000000 -V 0.000000 -T 0.000000
n -t 19.000000 -s 1 -x 14.237198 -y 784.591606 -U 0.000000 -V 0.000000 -T 0.000000
n -t 19.000000 -s 2 -x 131.126280 -y 339.391936 -U 0.000000 -V 0.000000 -T 0.000000
n -t 19.000000 -s 3 -x 1160.272393 -y 698.108892 -U 0.000000 -V 0.000000 -T 0.000000
n -t 19.000000 -s 4 -x 116.152577 -y 676.356439 -U 0.000000 -V 0.000000 -T 0.000000
d -t 20.000000000 -s 1 -d -1 -p tcp -e 40 -c 2 -a 0 -i 0 -k RTR
d -t 20.000000000 -s 1 -d -1 -p tcp -e 40 -c 2 -a 0 -i 4 -k RTR
d -t 20.000000000 -s 1 -d -1 -p tcp -e 40 -c 2 -a 0 -i 8 -k RTR
d -t 20.000000000 -s 2 -d -1 -p tcp -e 40 -c 2 -a 0 -i 1 -k RTR
d -t 20.000000000 -s 2 -d -1 -p tcp -e 40 -c 2 -a 0 -i 5 -k RTR
d -t 20.000000000 -s 2 -d -1 -p tcp -e 40 -c 2 -a 0 -i 9 -k RTR
d -t 20.000000000 -s 3 -d -1 -p tcp -e 40 -c 2 -a 0 -i 2 -k RTR
d -t 20.000000000 -s 3 -d -1 -p tcp -e 40 -c 2 -a 0 -i 6 -k RTR
d -t 20.000000000 -s 3 -d -1 -p tcp -e 40 -c 2 -a 0 -i 10 -k RTR
d -t 20.000000000 -s 4 -d -1 -p tcp -e 40 -c 2 -a 0 -i 3 -k RTR
d -t 20.000000000 -s 4 -d -1 -p tcp -e 40 -c 2 -a 0 -i 7 -k RTR
d -t 20.000000000 -s 4 -d -1 -p tcp -e 40 -c 2 -a 0 -i 11 -k RTR
n -t 20.000000 -s 1 -x 522.671872 -y 546.157659 -U 0.000000 -V 0.000000 -T 0.000000
n -t 20.000000 -s 2 -x 771.775703 -y 734.237625 -U 0.000000 -V 0.000000 -T 0.000000
n -t 20.000000 -s 3 -x 1331.769639 -y 52.324054 -U 0.000000 -V 0.000000 -T 0.000000
n -t 20.000000 -s 4 -x 410.369241 -y 75.827388 -U 0.000000 -V 0.000000 -T 0.000000
n -t 21.000000 -s 1 -x 930.908357 -y 776.759909 -U 0.000000 -V 0.000000 -T 0.000000
n -t 21.000000 -s 2 -x 503.796646 -y 1310.235595 -U 0.000000 -V 0.000000 -T 0.000000
n -t 21.000000 -s 3 -x 1129.649236 -y 514.712144 -U 0.000000 -V 0.000000 -T 0.000000
n -t 21.000000 -s 4 -x 267.003016 -y 1019.689445 -U 0.000000 -V 0.000000 -T 0.000000
+ -t 22.000000000 -s 1 -d -1 -p tcp -e 40 -c 2 -a 0 -i 12 -k AGT 
- -t 22.000000000 -s 1 -d -1 -p tcp -e 40 -c 2 -a 0 -i 12 -k AGT
h -t 22.000000000 -s 1 -d -1 -p tcp -e 40 -c 2 -a 0 -i 12 -k AGT
+ -t 22.000000000 -s 2 -d -1 -p tcp -e 40 -c 2 -a 0 -i 13 -k AGT 
- -t 22.000000000 -s 2 -d -1 -p tcp -e 40 -c 2 -a 0 -i 13 -k AGT
h -t 22.000000000 -s 2 -d -1 -p tcp -e 40 -c 2 -a 0 -i 13 -k AGT
+ -t 22.000000000 -s 3 -d -1 -p tcp -e 40 -c 2 -a 0 -i 14 -k AGT 
- -t 22.000000000 -s 3 -d -1 -p tcp -e 40 -c 2 -a 0 -i 14 -k AGT
h -t 22.000000000 -s 3 -d -1 -p tcp -e 40 -c 2 -a 0 -i 14 -k AGT
+ -t 22.000000000 -s 4 -d -1 -p tcp -e 40 -c 2 -a 0 -i 15 -k AGT 
- -t 22.000000000 -s 4 -d -1 -p tcp -e 40 -c 2 -a 0 -i 15 -k AGT
h -t 22.000000000 -s 4 -d -1 -p tcp -e 40 -c 2 -a 0 -i 15 -k AGT
n -t 22.000000 -s 1 -x 420.500894 -y 858.526132 -U 0.000000 -V 0.000000 -T 0.000000
n -t 22.000000 -s 2 -x 748.700585 -y 1410.737677 -U 0.000000 -V 0.000000 -T 0.000000
n -t 22.000000 -s 3 -x 1268.129010 -y 1444.265112 -U 0.000000 -V 0.000000 -T 0.000000
n -t 22.000000 -s 4 -x 763.733842 -y 574.675799 -U 0.000000 -V 0.000000 -T 0.000000
n -t 23.000000 -s 1 -x 76.148478 -y 327.463885 -U 0.000000 -V 0.000000 -T 0.000000
n -t 23.000000 -s 2 -x 185.507207 -y 819.636399 -U 0.000000 -V 0.000000 -T 0.000000
n -t 23.000000 -s 3 -x 1128.951431 -y 786.698236 -U 0.000000 -V 0.000000 -T 0.000000
n -t 23.000000 -s 4 -x 1037.256884 -y 176.444472 -U 0.000000 -V 0.000000 -T 0.000000
n -t 24.000000 -s 1 -x 2.235241 -y 67.699442 -U 0.000000 -V 0.000000 -T 0.000000
n -t 24.000000 -s 2 -x 824.528691 -y 853.702556 -U 0.000000 -V 0.000000 -T 0.000000
n -t 24.000000 -s 3 -x 678.851554 -y 458.060600 -U 0.000000 -V 0.000000 -T 0.000000
n -t 24.000000 -s 4 -x 624.497665 -y 432.254268 -U 0.000000 -V 0.000000 -T 0.000000
n -t 25.000000 -s 1 -x 397.487160 -y 1066.698179 -U 0.000000 -V 0.000000 -T 0.000000
n -t 25.000000 -s 2 -x 1496.292988 -y 696.250484 -U 0.000000 -V 0.000000 -T 0.000000
n -t 25.000000 -s 3 -x 381.883760 -y 1320.349195 -U 0.000000 -V 0.000000 -T 0.000000
n -t 25.000000 -s 4 -x 108.915731 -y 546.689167 -U 0.000000 -V 0.000000 -T 0.000000
n -t 26.000000 -s 1 -x 704.836621 -y 689.082070 -U 0.000000 -V 0.000000 -T 0.000000
n -t 26.000000 -s 2 -x 1402.352322 -y 1335.477204 -U 0.000000 -V 0.000000 -T 0.000000
n -t 26.000000 -s 3 -x 865.371296 -y 295.377795 -U 0.000000 -V 0.000000 -T 0.000000
n -t 26.000000 -s 4 -x 914.600961 -y 1198.349351 -U 0.000000 -V 0.000000 -T 0.000000
n -t 27.000000 -s 1 -x 157.548788 -y 422.473384 -U 0.000000 -V 0.000000 -T 0.000000
n -t 27.000000 -s 2 -x 1010.157588 -y 718.580554 -U 0.000000 -V 0.000000 -T 0.000000
n -t 27.000000 -s 3 -x 683.365074 -y 1316.792097 -U 0.000000 -V 0.000000 -T 0.000000
n -t 27.000000 -s 4 -x 324.779708 -y 72.549950 -U 0.000000 -V 0.000000 -T 0.000000
n -t 28.000000 -s 1 -x 1347.007962 -y 1162.819104 -U 0.000000 -V 0.000000 -T 0.000000
n -t 28.000000 -s 2 -x 0.686726 -y 1041.801104 -U 0.000000 -V 0.000000 -T 0.000000
n -t 28.000000 -s 3 -x 51.152842 -y 225.813987 -U 0.000000 -V 0.000000 -T 0.000000
n -t 28.000000 -s 4 -x 255.676798 -y 1159.946942 -U 0.000000 -V 0.000000 -T 0.000000
n -t 29.000000 -s 1 -x 1228.251590 -y 224.481530 -U 0.000000 -V 0.000000 -T 0.000000
n -t 29.000000 -s 2 -x 361.069008 -y 986.820442 -U 0.000000 -V 0.000000 -T 0.000000
n -t 29.000000 -s 3 -x 1491.163057 -y 1477.491814 -U 0.000000 -V 0.000000 -T 0.000000
n -t 29.000000 -s 4 -x 1204.920705 -y 1102.285654 -U 0.000000 -V 0.000000 -T 0.000000
