n -t * -s 0  -x 1000 -y 1000 -Z 0 -z 50  -v circle -c black
n -t * -s 1  -x 0 -y 0 -Z 0 -z 20  -v circle -c black
n -t * -s 2  -x 0 -y 0 -Z 0 -z 20  -v circle -c black
n -t * -s 3  -x 0 -y 0 -Z 0 -z 20  -v circle -c black
n -t * -s 4  -x 0 -y 0 -Z 0 -z 20  -v circle -c black
V -t * -v 1.0a5 -a 0
W -t * -x 2000 -y 2000
A -t * -n 1 -p 0 -o 0x7fffffff -c 30 -a 1
A -t * -h 1 -m 1073741823 -s 0
n -t 0 -s 0 -S DLABEL -l "Cell-Tower" -L ""
n -t 0 -s 1 -S DLABEL -l "Mobile-(1)" -L ""
n -t 0 -s 1 -S COLOR -c blue -o blue -i blue -I blue
n -t 0 -s 2 -S DLABEL -l "Mobile-(2)" -L ""
n -t 0 -s 2 -S COLOR -c blue -o blue -i blue -I blue
n -t 0 -s 3 -S DLABEL -l "Mobile-(3)" -L ""
n -t 0 -s 3 -S COLOR -c blue -o blue -i blue -I blue
n -t 0 -s 4 -S DLABEL -l "Mobile-(4)" -L ""
n -t 0 -s 4 -S COLOR -c blue -o blue -i blue -I blue
n -t 0.000000 -s 1 -x 1151.834870 -y 1388.653286 -U 0.000000 -V 0.000000 -T 0.000000
n -t 0.000000 -s 2 -x 595.777506 -y 732.544239 -U 0.000000 -V 0.000000 -T 0.000000
n -t 0.000000 -s 3 -x 1371.017387 -y 1189.216773 -U 0.000000 -V 0.000000 -T 0.000000
n -t 0.000000 -s 4 -x 1166.297897 -y 1468.760060 -U 0.000000 -V 0.000000 -T 0.000000
+ -t 1.000000000 -s 1 -d -1 -p tcp -e 40 -c 2 -a 0 -i 0 -k AGT 
- -t 1.000000000 -s 1 -d -1 -p tcp -e 40 -c 2 -a 0 -i 0 -k AGT
h -t 1.000000000 -s 1 -d -1 -p tcp -e 40 -c 2 -a 0 -i 0 -k AGT
+ -t 1.000000000 -s 2 -d -1 -p tcp -e 40 -c 2 -a 0 -i 1 -k AGT 
- -t 1.000000000 -s 2 -d -1 -p tcp -e 40 -c 2 -a 0 -i 1 -k AGT
h -t 1.000000000 -s 2 -d -1 -p tcp -e 40 -c 2 -a 0 -i 1 -k AGT
+ -t 1.000000000 -s 3 -d -1 -p tcp -e 40 -c 2 -a 0 -i 2 -k AGT 
- -t 1.000000000 -s 3 -d -1 -p tcp -e 40 -c 2 -a 0 -i 2 -k AGT
h -t 1.000000000 -s 3 -d -1 -p tcp -e 40 -c 2 -a 0 -i 2 -k AGT
+ -t 1.000000000 -s 4 -d -1 -p tcp -e 40 -c 2 -a 0 -i 3 -k AGT 
- -t 1.000000000 -s 4 -d -1 -p tcp -e 40 -c 2 -a 0 -i 3 -k AGT
h -t 1.000000000 -s 4 -d -1 -p tcp -e 40 -c 2 -a 0 -i 3 -k AGT
n -t 1.000000 -s 1 -x 1450.330637 -y 707.014489 -U 0.000000 -V 0.000000 -T 0.000000
n -t 1.000000 -s 2 -x 1292.518035 -y 350.617258 -U 0.000000 -V 0.000000 -T 0.000000
n -t 1.000000 -s 3 -x 824.248076 -y 637.418957 -U 0.000000 -V 0.000000 -T 0.000000
n -t 1.000000 -s 4 -x 100.418554 -y 234.628701 -U 0.000000 -V 0.000000 -T 0.000000
n -t 2.000000 -s 1 -x 1404.573681 -y 1169.864753 -U 0.000000 -V 0.000000 -T 0.000000
n -t 2.000000 -s 2 -x 1416.897651 -y 1298.820394 -U 0.000000 -V 0.000000 -T 0.000000
n -t 2.000000 -s 3 -x 1274.369744 -y 1332.295457 -U 0.000000 -V 0.000000 -T 0.000000
n -t 2.000000 -s 4 -x 1389.742826 -y 907.673682 -U 0.000000 -V 0.000000 -T 0.000000
n -t 3.000000 -s 1 -x 271.570186 -y 1280.124337 -U 0.000000 -V 0.000000 -T 0.000000
n -t 3.000000 -s 2 -x 549.737170 -y 932.610531 -U 0.000000 -V 0.000000 -T 0.000000
n -t 3.000000 -s 3 -x 885.195750 -y 484.966189 -U 0.000000 -V 0.000000 -T 0.000000
n -t 3.000000 -s 4 -x 1326.736759 -y 964.705959 -U 0.000000 -V 0.000000 -T 0.000000
+ -t 4.000000000 -s 1 -d -1 -p tcp -e 40 -c 2 -a 0 -i 4 -k AGT 
- -t 4.000000000 -s 1 -d -1 -p tcp -e 40 -c 2 -a 0 -i 4 -k AGT
h -t 4.000000000 -s 1 -d -1 -p tcp -e 40 -c 2 -a 0 -i 4 -k AGT
+ -t 4.000000000 -s 2 -d -1 -p tcp -e 40 -c 2 -a 0 -i 5 -k AGT 
- -t 4.000000000 -s 2 -d -1 -p tcp -e 40 -c 2 -a 0 -i 5 -k AGT
h -t 4.000000000 -s 2 -d -1 -p tcp -e 40 -c 2 -a 0 -i 5 -k AGT
+ -t 4.000000000 -s 3 -d -1 -p tcp -e 40 -c 2 -a 0 -i 6 -k AGT 
- -t 4.000000000 -s 3 -d -1 -p tcp -e 40 -c 2 -a 0 -i 6 -k AGT
h -t 4.000000000 -s 3 -d -1 -p tcp -e 40 -c 2 -a 0 -i 6 -k AGT
+ -t 4.000000000 -s 4 -d -1 -p tcp -e 40 -c 2 -a 0 -i 7 -k AGT 
- -t 4.000000000 -s 4 -d -1 -p tcp -e 40 -c 2 -a 0 -i 7 -k AGT
h -t 4.000000000 -s 4 -d -1 -p tcp -e 40 -c 2 -a 0 -i 7 -k AGT
n -t 4.000000 -s 1 -x 313.059832 -y 1096.594447 -U 0.000000 -V 0.000000 -T 0.000000
n -t 4.000000 -s 2 -x 1462.876023 -y 57.326537 -U 0.000000 -V 0.000000 -T 0.000000
n -t 4.000000 -s 3 -x 487.105429 -y 1280.940175 -U 0.000000 -V 0.000000 -T 0.000000
n -t 4.000000 -s 4 -x 761.524373 -y 940.130676 -U 0.000000 -V 0.000000 -T 0.000000
n -t 5.000000 -s 1 -x 1276.273465 -y 328.120874 -U 0.000000 -V 0.000000 -T 0.000000
n -t 5.000000 -s 2 -x 727.532023 -y 1130.713994 -U 0.000000 -V 0.000000 -T 0.000000
n -t 5.000000 -s 3 -x 410.100687 -y 62.250667 -U 0.000000 -V 0.000000 -T 0.000000
n -t 5.000000 -s 4 -x 746.957159 -y 608.975523 -U 0.000000 -V 0.000000 -T 0.000000
n -t 6.000000 -s 1 -x 551.614546 -y 985.678673 -U 0.000000 -V 0.000000 -T 0.000000
n -t 6.000000 -s 2 -x 301.465218 -y 1225.916623 -U 0.000000 -V 0.000000 -T 0.000000
n -t 6.000000 -s 3 -x 1480.679020 -y 772.293789 -U 0.000000 -V 0.000000 -T 0.000000
n -t 6.000000 -s 4 -x 441.711276 -y 341.408645 -U 0.000000 -V 0.000000 -T 0.000000
n -t 7.000000 -s 1 -x 555.099787 -y 1062.119830 -U 0.000000 -V 0.000000 -T 0.000000
n -t 7.000000 -s 2 -x 1047.978275 -y 370.872043 -U 0.000000 -V 0.000000 -T 0.000000
n -t 7.000000 -s 3 -x 746.434747 -y 828.787076 -U 0.000000 -V 0.000000 -T 0.000000
n -t 7.000000 -s 4 -x 424.385902 -y 153.854426 -U 0.000000 -V 0.000000 -T 0.000000
n -t 8.000000 -s 1 -x 1331.338928 -y 313.362939 -U 0.000000 -V 0.000000 -T 0.000000
n -t 8.000000 -s 2 -x 190.915160 -y 211.089703 -U 0.000000 -V 0.000000 -T 0.000000
n -t 8.000000 -s 3 -x 284.636422 -y 384.351711 -U 0.000000 -V 0.000000 -T 0.000000
n -t 8.000000 -s 4 -x 799.198411 -y 1127.691087 -U 0.000000 -V 0.000000 -T 0.000000
n -t 9.000000 -s 1 -x 604.105469 -y 1200.615599 -U 0.000000 -V 0.000000 -T 0.000000
n -t 9.000000 -s 2 -x 746.367027 -y 1190.625587 -U 0.000000 -V 0.000000 -T 0.000000
n -t 9.000000 -s 3 -x 844.238500 -y 616.466230 -U 0.000000 -V 0.000000 -T 0.000000
n -t 9.000000 -s 4 -x 447.928763 -y 1338.711418 -U 0.000000 -V 0.000000 -T 0.000000
+ -t 10.000000000 -s 1 -d -1 -p tcp -e 40 -c 2 -a 0 -i 8 -k AGT 
- -t 10.000000000 -s 1 -d -1 -p tcp -e 40 -c 2 -a 0 -i 8 -k AGT
h -t 10.000000000 -s 1 -d -1 -p tcp -e 40 -c 2 -a 0 -i 8 -k AGT
+ -t 10.000000000 -s 2 -d -1 -p tcp -e 40 -c 2 -a 0 -i 9 -k AGT 
- -t 10.000000000 -s 2 -d -1 -p tcp -e 40 -c 2 -a 0 -i 9 -k AGT
h -t 10.000000000 -s 2 -d -1 -p tcp -e 40 -c 2 -a 0 -i 9 -k AGT
+ -t 10.000000000 -s 3 -d -1 -p tcp -e 40 -c 2 -a 0 -i 10 -k AGT 
- -t 10.000000000 -s 3 -d -1 -p tcp -e 40 -c 2 -a 0 -i 10 -k AGT
h -t 10.000000000 -s 3 -d -1 -p tcp -e 40 -c 2 -a 0 -i 10 -k AGT
+ -t 10.000000000 -s 4 -d -1 -p tcp -e 40 -c 2 -a 0 -i 11 -k AGT 
- -t 10.000000000 -s 4 -d -1 -p tcp -e 40 -c 2 -a 0 -i 11 -k AGT
h -t 10.000000000 -s 4 -d -1 -p tcp -e 40 -c 2 -a 0 -i 11 -k AGT
n -t 10.000000 -s 1 -x 1222.804618 -y 177.209787 -U 0.000000 -V 0.000000 -T 0.000000
n -t 10.000000 -s 2 -x 864.888772 -y 1185.588312 -U 0.000000 -V 0.000000 -T 0.000000
n -t 10.000000 -s 3 -x 182.766872 -y 1262.819008 -U 0.000000 -V 0.000000 -T 0.000000
n -t 10.000000 -s 4 -x 699.072928 -y 1318.709189 -U 0.000000 -V 0.000000 -T 0.000000
n -t 11.000000 -s 1 -x 1045.335405 -y 952.156784 -U 0.000000 -V 0.000000 -T 0.000000
n -t 11.000000 -s 2 -x 899.072444 -y 1210.562721 -U 0.000000 -V 0.000000 -T 0.000000
n -t 11.000000 -s 3 -x 1427.651727 -y 542.576911 -U 0.000000 -V 0.000000 -T 0.000000
n -t 11.000000 -s 4 -x 590.150125 -y 653.145299 -U 0.000000 -V 0.000000 -T 0.000000
n -t 12.000000 -s 1 -x 413.034678 -y 1373.835894 -U 0.000000 -V 0.000000 -T 0.000000
n -t 12.000000 -s 2 -x 559.866336 -y 173.516463 -U 0.000000 -V 0.000000 -T 0.000000
n -t 12.000000 -s 3 -x 291.199293 -y 1186.523435 -U 0.000000 -V 0.000000 -T 0.000000
n -t 12.000000 -s 4 -x 899.364651 -y 121.687695 -U 0.000000 -V 0.000000 -T 0.000000
n -t 13.000000 -s 1 -x 705.089445 -y 438.307517 -U 0.000000 -V 0.000000 -T 0.000000
n -t 13.000000 -s 2 -x 134.433408 -y 422.293809 -U 0.000000 -V 0.000000 -T 0.000000
n -t 13.000000 -s 3 -x 992.047418 -y 840.956646 -U 0.000000 -V 0.000000 -T 0.000000
n -t 13.000000 -s 4 -x 958.348375 -y 1461.142996 -U 0.000000 -V 0.000000 -T 0.000000
n -t 14.000000 -s 1 -x 930.331122 -y 75.169096 -U 0.000000 -V 0.000000 -T 0.000000
n -t 14.000000 -s 2 -x 367.001013 -y 186.026665 -U 0.000000 -V 0.000000 -T 0.000000
n -t 14.000000 -s 3 -x 550.166533 -y 648.914307 -U 0.000000 -V 0.000000 -T 0.000000
n -t 14.000000 -s 4 -x 1302.753156 -y 1372.296119 -U 0.000000 -V 0.000000 -T 0.000000
n -t 15.000000 -s 1 -x 180.876775 -y 995.961850 -U 0.000000 -V 0.000000 -T 0.000000
n -t 15.000000 -s 2 -x 630.813648 -y 84.975014 -U 0.000000 -V 0.000000 -T 0.000000
n -t 15.000000 -s 3 -x 175.064457 -y 808.328185 -U 0.000000 -V 0.000000 -T 0.000000
n -t 15.000000 -s 4 -x 71.807669 -y 871.489700 -U 0.000000 -V 0.000000 -T 0.000000
n -t 16.000000 -s 1 -x 1127.389630 -y 37.513583 -U 0.000000 -V 0.000000 -T 0.000000
n -t 16.000000 -s 2 -x 490.785311 -y 128.713679 -U 0.000000 -V 0.000000 -T 0.000000
n -t 16.000000 -s 3 -x 290.796710 -y 420.302415 -U 0.000000 -V 0.000000 -T 0.000000
n -t 16.000000 -s 4 -x 522.696676 -y 963.029218 -U 0.000000 -V 0.000000 -T 0.000000
n -t 17.000000 -s 1 -x 632.061149 -y 51.724344 -U 0.000000 -V 0.000000 -T 0.000000
n -t 17.000000 -s 2 -x 831.046542 -y 899.224813 -U 0.000000 -V 0.000000 -T 0.000000
n -t 17.000000 -s 3 -x 771.429006 -y 907.310052 -U 0.000000 -V 0.000000 -T 0.000000
n -t 17.000000 -s 4 -x 160.052348 -y 499.816797 -U 0.000000 -V 0.000000 -T 0.000000
n -t 18.000000 -s 1 -x 420.898935 -y 48.393093 -U 0.000000 -V 0.000000 -T 0.000000
n -t 18.000000 -s 2 -x 342.707436 -y 1383.872819 -U 0.000000 -V 0.000000 -T 0.000000
n -t 18.000000 -s 3 -x 1250.470261 -y 153.680092 -U 0.000000 -V 0.000000 -T 0.000000
n -t 18.000000 -s 4 -x 1401.298891 -y 130.469006 -U 0.000000 -V 0.000000 -T 0.000000
n -t 19.000000 -s 1 -x 1292.589122 -y 45.375136 -U 0.000000 -V 0.000000 -T 0.000000
n -t 19.000000 -s 2 -x 619.910436 -y 1334.694607 -U 0.000000 -V 0.000000 -T 0.000000
n -t 19.000000 -s 3 -x 1212.257723 -y 1415.557568 -U 0.000000 -V 0.000000 -T 0.000000
n -t 19.000000 -s 4 -x 1276.040155 -y 906.886824 -U 0.000000 -V 0.000000 -T 0.000000
d -t 20.000000000 -s 1 -d -1 -p tcp -e 40 -c 2 -a 0 -i 0 -k RTR
d -t 20.000000000 -s 1 -d -1 -p tcp -e 40 -c 2 -a 0 -i 4 -k RTR
d -t 20.000000000 -s 1 -d -1 -p tcp -e 40 -c 2 -a 0 -i 8 -k RTR
d -t 20.000000000 -s 2 -d -1 -p tcp -e 40 -c 2 -a 0 -i 1 -k RTR
d -t 20.000000000 -s 2 -d -1 -p tcp -e 40 -c 2 -a 0 -i 5 -k RTR
d -t 20.000000000 -s 2 -d -1 -p tcp -e 40 -c 2 -a 0 -i 9 -k RTR
d -t 20.000000000 -s 3 -d -1 -p tcp -e 40 -c 2 -a 0 -i 2 -k RTR
d -t 20.000000000 -s 3 -d -1 -p tcp -e 40 -c 2 -a 0 -i 6 -k RTR
d -t 20.000000000 -s 3 -d -1 -p tcp -e 40 -c 2 -a 0 -i 10 -k RTR
d -t 20.000000000 -s 4 -d -1 -p tcp -e 40 -c 2 -a 0 -i 3 -k RTR
d -t 20.000000000 -s 4 -d -1 -p tcp -e 40 -c 2 -a 0 -i 7 -k RTR
d -t 20.000000000 -s 4 -d -1 -p tcp -e 40 -c 2 -a 0 -i 11 -k RTR
n -t 20.000000 -s 1 -x 546.845335 -y 329.542600 -U 0.000000 -V 0.000000 -T 0.000000
n -t 20.000000 -s 2 -x 622.478279 -y 992.440904 -U 0.000000 -V 0.000000 -T 0.000000
n -t 20.000000 -s 3 -x 1454.269976 -y 915.480503 -U 0.000000 -V 0.000000 -T 0.000000
n -t 20.000000 -s 4 -x 980.819088 -y 1126.406964 -U 0.000000 -V 0.000000 -T 0.000000
n -t 21.000000 -s 1 -x 21.851329 -y 1255.284995 -U 0.000000 -V 0.000000 -T 0.000000
n -t 21.000000 -s 2 -x 74.906371 -y 451.379130 -U 0.000000 -V 0.000000 -T 0.000000
n -t 21.000000 -s 3 -x 829.031867 -y 38.594739 -U 0.000000 -V 0.000000 -T 0.000000
n -t 21.000000 -s 4 -x 661.783360 -y 92.939685 -U 0.000000 -V 0.000000 -T 0.000000
+ -t 22.000000000 -s 1 -d -1 -p tcp -e 40 -c 2 -a 0 -i 12 -k AGT 
- -t 22.000000000 -s 1 -d -1 -p tcp -e 40 -c 2 -a 0 -i 12 -k AGT
h -t 22.000000000 -s 1 -d -1 -p tcp -e 40 -c 2 -a 0 -i 12 -k AGT
+ -t 22.000000000 -s 2 -d -1 -p tcp -e 40 -c 2 -a 0 -i 13 -k AGT 
- -t 22.000000000 -s 2 -d -1 -p tcp -e 40 -c 2 -a 0 -i 13 -k AGT
h -t 22.000000000 -s 2 -d -1 -p tcp -e 40 -c 2 -a 0 -i 13 -k AGT
+ -t 22.000000000 -s 3 -d -1 -p tcp -e 40 -c 2 -a 0 -i 14 -k AGT 
- -t 22.000000000 -s 3 -d -1 -p tcp -e 40 -c 2 -a 0 -i 14 -k AGT
h -t 22.000000000 -s 3 -d -1 -p tcp -e 40 -c 2 -a 0 -i 14 -k AGT
+ -t 22.000000000 -s 4 -d -1 -p tcp -e 40 -c 2 -a 0 -i 15 -k AGT 
- -t 22.000000000 -s 4 -d -1 -p tcp -e 40 -c 2 -a 0 -i 15 -k AGT
h -t 22.000000000 -s 4 -d -1 -p tcp -e 40 -c 2 -a 0 -i 15 -k AGT
n -t 22.000000 -s 1 -x 537.288183 -y 202.497795 -U 0.000000 -V 0.000000 -T 0.000000
n -t 22.000000 -s 2 -x 1380.434178 -y 457.233443 -U 0.000000 -V 0.000000 -T 0.000000
n -t 22.000000 -s 3 -x 222.470991 -y 1069.948833 -U 0.000000 -V 0.000000 -T 0.000000
n -t 22.000000 -s 4 -x 630.040189 -y 585.461764 -U 0.000000 -V 0.000000 -T 0.000000
n -t 23.000000 -s 1 -x 1355.874327 -y 179.820779 -U 0.000000 -V 0.000000 -T 0.000000
n -t 23.000000 -s 2 -x 1247.834271 -y 850.587699 -U 0.000000 -V 0.000000 -T 0.000000
n -t 23.000000 -s 3 -x 827.449722 -y 447.472100 -U 0.000000 -V 0.000000 -T 0.000000
n -t 23.000000 -s 4 -x 1163.578918 -y 770.879530 -U 0.000000 -V 0.000000 -T 0.000000
n -t 24.000000 -s 1 -x 672.260851 -y 688.114611 -U 0.000000 -V 0.000000 -T 0.000000
n -t 24.000000 -s 2 -x 142.271896 -y 163.755386 -U 0.000000 -V 0.000000 -T 0.000000
n -t 24.000000 -s 3 -x 1236.768251 -y 863.993373 -U 0.000000 -V 0.000000 -T 0.000000
n -t 24.000000 -s 4 -x 1136.618963 -y 654.915738 -U 0.000000 -V 0.000000 -T 0.000000
n -t 25.000000 -s 1 -x 168.812339 -y 728.978330 -U 0.000000 -V 0.000000 -T 0.000000
n -t 25.000000 -s 2 -x 1438.798631 -y 388.588098 -U 0.000000 -V 0.000000 -T 0.000000
n -t 25.000000 -s 3 -x 0.167987 -y 1323.350971 -U 0.000000 -V 0.000000 -T 0.000000
n -t 25.000000 -s 4 -x 1059.765965 -y 486.573875 -U 0.000000 -V 0.000000 -T 0.000000
n -t 26.000000 -s 1 -x 1347.116186 -y 1481.745584 -U 0.000000 -V 0.000000 -T 0.000000
n -t 26.000000 -s 2 -x 698.029079 -y 274.732452 -U 0.000000 -V 0.000000 -T 0.000000
n -t 26.000000 -s 3 -x 428.313171 -y 159.460949 -U 0.000000 -V 0.000000 -T 0.000000
n -t 26.000000 -s 4 -x 1060.171310 -y 1299.201351 -U 0.000000 -V 0.000000 -T 0.000000
n -t 27.000000 -s 1 -x 177.098957 -y 502.162017 -U 0.000000 -V 0.000000 -T 0.000000
n -t 27.000000 -s 2 -x 837.014616 -y 704.649860 -U 0.000000 -V 0.000000 -T 0.000000
n -t 27.000000 -s 3 -x 550.195370 -y 1133.581789 -U 0.000000 -V 0.000000 -T 0.000000
n -t 27.000000 -s 4 -x 609.128392 -y 120.886352 -U 0.000000 -V 0.000000 -T 0.000000
n -t 28.000000 -s 1 -x 736.921465 -y 1439.056692 -U 0.000000 -V 0.000000 -T 0.000000
n -t 28.000000 -s 2 -x 225.824980 -y 440.445637 -U 0.000000 -V 0.000000 -T 0.000000
n -t 28.000000 -s 3 -x 69.818320 -y 436.500632 -U 0.000000 -V 0.000000 -T 0.000000
n -t 28.000000 -s 4 -x 1266.121044 -y 696.393453 -U 0.000000 -V 0.000000 -T 0.000000
n -t 29.000000 -s 1 -x 1284.770868 -y 643.984956 -U 0.000000 -V 0.000000 -T 0.000000
n -t 29.000000 -s 2 -x 955.160000 -y 374.117898 -U 0.000000 -V 0.000000 -T 0.000000
n -t 29.000000 -s 3 -x 1299.519473 -y 1023.784859 -U 0.000000 -V 0.000000 -T 0.000000
n -t 29.000000 -s 4 -x 252.123267 -y 1435.741341 -U 0.000000 -V 0.000000 -T 0.000000
